
     Program PWSCF v.7.4.1 starts on  1Jul2025 at 21:47:29 

     This program is part of the open-source Quantum ESPRESSO suite
     for quantum simulation of materials; please cite
         "P. Giannozzi et al., J. Phys.:Condens. Matter 21 395502 (2009);
         "P. Giannozzi et al., J. Phys.:Condens. Matter 29 465901 (2017);
         "P. Giannozzi et al., J. Chem. Phys. 152 154105 (2020);
          URL http://www.quantum-espresso.org", 
     in publications or presentations arising from this work. More details at
     http://www.quantum-espresso.org/quote

     Parallel version (MPI), running on     8 processors

     MPI processes distributed on     1 nodes
     570097 MiB available memory on the printing compute node when the environment starts
 
     Reading input from CrI3.relax.in

     Current dimensions of program PWSCF are:
     Max number of different atomic species (ntypx) = 10
     Max number of k-points (npk) =  40000
     Max angular momentum in pseudopotentials (lmaxx) =  4

     gamma-point specific algorithms are used
     Found identity + (  0.0000  0.3333  0.0000) symmetry
     This is a supercell, fractional translations are disabled
 
     R & G space division:  proc/nbgrp/npool/nimage =       8
     Subspace diagonalization in iterative solution of the eigenvalue problem:
     a serial algorithm will be used

 
     Parallelization info
     --------------------
     sticks:   dense  smooth     PW     G-vecs:    dense   smooth      PW
     Min        5376    5376   1342              1459944  1459944  182468
     Max        5378    5378   1344              1459955  1459955  182478
     Sum       43021   43021  10747             11679623 11679623 1459781
 
     Using Slab Decomposition
 


     bravais-lattice index     =            0
     lattice parameter (alat)  =      39.5059  a.u.
     unit-cell volume          =   86454.5616 (a.u.)^3
     number of atoms/cell      =          144
     number of atomic types    =            4
     number of electrons       =      1260.00
     number of Kohn-Sham states=          756
     kinetic-energy cutoff     =     100.0000  Ry
     charge density cutoff     =     400.0000  Ry
     scf convergence threshold =      1.0E-07
     mixing beta               =       0.2000
     number of iterations used =            8  plain     mixing
     energy convergence thresh.=      1.0E-04
     force convergence thresh. =      1.0E-03
     press convergence thresh. =      5.0E-01
     Exchange-correlation= PBE
                           (   1   4   3   4   0   0   0)
     nstep                     =           50


     GPU acceleration is ACTIVE.  1 visible GPUs per MPI rank

     Message from routine print_cuda_info:
     High GPU oversubscription detected. Are you sure this is what you want?

     celldm(1)=  39.505946  celldm(2)=   0.000000  celldm(3)=   0.000000
     celldm(4)=   0.000000  celldm(5)=   0.000000  celldm(6)=   0.000000

     crystal axes: (cart. coord. in units of alat)
               a(1) = (   1.000000   0.000000   0.000000 )  
               a(2) = (  -0.500000   0.866025   0.000000 )  
               a(3) = (   0.000000   0.000000   1.619086 )  

     reciprocal axes: (cart. coord. in units 2 pi/alat)
               b(1) = (  1.000000  0.577350 -0.000000 )  
               b(2) = (  0.000000  1.154701  0.000000 )  
               b(3) = (  0.000000 -0.000000  0.617632 )  


     PseudoPot. # 1 for Cr read from file:
     ./Cr.upf
     MD5 check sum: 41892f80c335c8b1e803fd21ab4016b0
     Pseudo is Norm-conserving + core correction, Zval = 14.0
     Generated using ONCVPSP code by D. R. Hamann
     Using radial grid of 1638 points,  6 beta functions with: 
                l(1) =   0
                l(2) =   0
                l(3) =   1
                l(4) =   1
                l(5) =   2
                l(6) =   2

     PseudoPot. # 2 for I  read from file:
     ./I.upf
     MD5 check sum: 9cb9d574a1900baf8aa34970b08b8049
     Pseudo is Norm-conserving + core correction, Zval =  7.0
     Generated using ONCVPSP code by D. R. Hamann
     Using radial grid of 1188 points,  8 beta functions with: 
                l(1) =   0
                l(2) =   0
                l(3) =   1
                l(4) =   1
                l(5) =   2
                l(6) =   2
                l(7) =   3
                l(8) =   3

     PseudoPot. # 3 for Cr read from file:
     ./Cr.upf
     MD5 check sum: 41892f80c335c8b1e803fd21ab4016b0
     Pseudo is Norm-conserving + core correction, Zval = 14.0
     Generated using ONCVPSP code by D. R. Hamann
     Using radial grid of 1638 points,  6 beta functions with: 
                l(1) =   0
                l(2) =   0
                l(3) =   1
                l(4) =   1
                l(5) =   2
                l(6) =   2

     PseudoPot. # 4 for I  read from file:
     ./I.upf
     MD5 check sum: 9cb9d574a1900baf8aa34970b08b8049
     Pseudo is Norm-conserving + core correction, Zval =  7.0
     Generated using ONCVPSP code by D. R. Hamann
     Using radial grid of 1188 points,  8 beta functions with: 
                l(1) =   0
                l(2) =   0
                l(3) =   1
                l(4) =   1
                l(5) =   2
                l(6) =   2
                l(7) =   3
                l(8) =   3

     atomic species   valence    mass     pseudopotential
     Cr1              14.00    52.00000     Cr( 1.00)
     I1                7.00   127.00000     I ( 1.00)
     Cr2              14.00    52.00000     Cr( 1.00)
     I2                7.00   127.00000     I ( 1.00)

     Starting magnetic structure 
     atomic species   magnetization
     Cr1             0.100
     I1              0.100
     Cr2            -0.100
     I2             -0.100

     No symmetry found



   Cartesian axes

     site n.     atom                  positions (alat units)
         1        I1     tau(   1) = (   0.2300406   0.1281450   0.5062527  )
         2        I1     tau(   2) = (   0.0519406   0.2309428   0.5065696  )
         3        I1     tau(   3) = (   0.0521934   0.0256021   0.5067711  )
         4        Cr1    tau(   4) = (  -0.0553634   0.2244141   0.5813635  )
         5        Cr1    tau(   5) = (   0.2780713   0.0319056   0.5813635  )
         6        I1     tau(   6) = (   0.1705913   0.2306732   0.6559559  )
         7        I1     tau(   7) = (  -0.0073654   0.1282219   0.6561574  )
         8        I1     tau(   8) = (   0.1707102   0.0253816   0.6564743  )
         9        I2     tau(   9) = (   0.0078184   0.1281450   0.9626117  )
        10        I2     tau(  10) = (   0.1630517   0.2309428   0.9629285  )
        11        I2     tau(  11) = (   0.1633045   0.0256021   0.9631300  )
        12        Cr2    tau(  12) = (   0.0557478   0.2244141   1.0377224  )
        13        Cr2    tau(  13) = (   0.0558491   0.0319056   1.0377224  )
        14        I2     tau(  14) = (  -0.0516309   0.2306732   1.1123149  )
        15        I2     tau(  15) = (   0.1037457   0.1282219   1.1125163  )
        16        I2     tau(  16) = (   0.2818213   0.0253816   1.1128332  )
        17        I1     tau(  17) = (   0.0633739   0.4168201   0.5062527  )
        18        I1     tau(  18) = (  -0.1147261   0.5196179   0.5065696  )
        19        I1     tau(  19) = (  -0.1144732   0.3142773   0.5067711  )
        20        Cr1    tau(  20) = (  -0.2220300   0.5130893   0.5813635  )
        21        Cr1    tau(  21) = (   0.1114046   0.3205807   0.5813635  )
        22        I1     tau(  22) = (   0.0039246   0.5193484   0.6559559  )
        23        I1     tau(  23) = (  -0.1740321   0.4168970   0.6561574  )
        24        I1     tau(  24) = (   0.0040435   0.3140568   0.6564743  )
        25        I2     tau(  25) = (  -0.1588483   0.4168201   0.9626117  )
        26        I2     tau(  26) = (  -0.0036150   0.5196179   0.9629285  )
        27        I2     tau(  27) = (  -0.0033621   0.3142773   0.9631300  )
        28        Cr2    tau(  28) = (  -0.1109189   0.5130893   1.0377224  )
        29        Cr2    tau(  29) = (  -0.1108176   0.3205807   1.0377224  )
        30        I2     tau(  30) = (  -0.2182976   0.5193484   1.1123149  )
        31        I2     tau(  31) = (  -0.0629210   0.4168970   1.1125163  )
        32        I2     tau(  32) = (   0.1151546   0.3140568   1.1128332  )
        33        I1     tau(  33) = (  -0.1032927   0.7054953   0.5062527  )
        34        I1     tau(  34) = (  -0.2813928   0.8082931   0.5065696  )
        35        I1     tau(  35) = (  -0.2811399   0.6029524   0.5067711  )
        36        Cr1    tau(  36) = (  -0.3886967   0.8017644   0.5813635  )
        37        Cr1    tau(  37) = (  -0.0552620   0.6092558   0.5813635  )
        38        I1     tau(  38) = (  -0.1627421   0.8080235   0.6559559  )
        39        I1     tau(  39) = (  -0.3406987   0.7055721   0.6561574  )
        40        I1     tau(  40) = (  -0.1626232   0.6027319   0.6564743  )
        41        I2     tau(  41) = (  -0.3255150   0.7054953   0.9626117  )
        42        I2     tau(  42) = (  -0.1702817   0.8082931   0.9629285  )
        43        I2     tau(  43) = (  -0.1700288   0.6029524   0.9631300  )
        44        Cr2    tau(  44) = (  -0.2775856   0.8017644   1.0377224  )
        45        Cr2    tau(  45) = (  -0.2774843   0.6092558   1.0377224  )
        46        I2     tau(  46) = (  -0.3849643   0.8080235   1.1123149  )
        47        I2     tau(  47) = (  -0.2295876   0.7055721   1.1125163  )
        48        I2     tau(  48) = (  -0.0515121   0.6027319   1.1128332  )
        49        I1     tau(  49) = (   0.5633739   0.1281450   0.5062527  )
        50        I1     tau(  50) = (   0.3852739   0.2309428   0.5065696  )
        51        I1     tau(  51) = (   0.3855267   0.0256021   0.5067711  )
        52        Cr1    tau(  52) = (   0.2779700   0.2244141   0.5813635  )
        53        Cr1    tau(  53) = (   0.6114046   0.0319056   0.5813635  )
        54        I1     tau(  54) = (   0.5039246   0.2306732   0.6559559  )
        55        I1     tau(  55) = (   0.3259679   0.1282219   0.6561574  )
        56        I1     tau(  56) = (   0.5040435   0.0253816   0.6564743  )
        57        I2     tau(  57) = (   0.3411517   0.1281450   0.9626117  )
        58        I2     tau(  58) = (   0.4963850   0.2309428   0.9629285  )
        59        I2     tau(  59) = (   0.4966379   0.0256021   0.9631300  )
        60        Cr2    tau(  60) = (   0.3890811   0.2244141   1.0377224  )
        61        Cr2    tau(  61) = (   0.3891824   0.0319056   1.0377224  )
        62        I2     tau(  62) = (   0.2817024   0.2306732   1.1123149  )
        63        I2     tau(  63) = (   0.4370791   0.1282219   1.1125163  )
        64        I2     tau(  64) = (   0.6151546   0.0253816   1.1128332  )
        65        I1     tau(  65) = (   0.3967073   0.4168201   0.5062527  )
        66        I1     tau(  66) = (   0.2186072   0.5196179   0.5065696  )
        67        I1     tau(  67) = (   0.2188601   0.3142773   0.5067711  )
        68        Cr1    tau(  68) = (   0.1113033   0.5130893   0.5813635  )
        69        Cr1    tau(  69) = (   0.4447380   0.3205807   0.5813635  )
        70        I1     tau(  70) = (   0.3372579   0.5193484   0.6559559  )
        71        I1     tau(  71) = (   0.1593013   0.4168970   0.6561574  )
        72        I1     tau(  72) = (   0.3373768   0.3140568   0.6564743  )
        73        I2     tau(  73) = (   0.1744850   0.4168201   0.9626117  )
        74        I2     tau(  74) = (   0.3297183   0.5196179   0.9629285  )
        75        I2     tau(  75) = (   0.3299712   0.3142773   0.9631300  )
        76        Cr2    tau(  76) = (   0.2224144   0.5130893   1.0377224  )
        77        Cr2    tau(  77) = (   0.2225157   0.3205807   1.0377224  )
        78        I2     tau(  78) = (   0.1150357   0.5193484   1.1123149  )
        79        I2     tau(  79) = (   0.2704124   0.4168970   1.1125163  )
        80        I2     tau(  80) = (   0.4484879   0.3140568   1.1128332  )
        81        I1     tau(  81) = (   0.2300406   0.7054953   0.5062527  )
        82        I1     tau(  82) = (   0.0519406   0.8082931   0.5065696  )
        83        I1     tau(  83) = (   0.0521934   0.6029524   0.5067711  )
        84        Cr1    tau(  84) = (  -0.0553634   0.8017644   0.5813635  )
        85        Cr1    tau(  85) = (   0.2780713   0.6092558   0.5813635  )
        86        I1     tau(  86) = (   0.1705913   0.8080235   0.6559559  )
        87        I1     tau(  87) = (  -0.0073654   0.7055721   0.6561574  )
        88        I1     tau(  88) = (   0.1707102   0.6027319   0.6564743  )
        89        I2     tau(  89) = (   0.0078184   0.7054953   0.9626117  )
        90        I2     tau(  90) = (   0.1630517   0.8082931   0.9629285  )
        91        I2     tau(  91) = (   0.1633045   0.6029524   0.9631300  )
        92        Cr2    tau(  92) = (   0.0557478   0.8017644   1.0377224  )
        93        Cr2    tau(  93) = (   0.0558491   0.6092558   1.0377224  )
        94        I2     tau(  94) = (  -0.0516310   0.8080235   1.1123149  )
        95        I2     tau(  95) = (   0.1037457   0.7055721   1.1125163  )
        96        I2     tau(  96) = (   0.2818213   0.6027319   1.1128332  )
        97        I1     tau(  97) = (   0.8967073   0.1281450   0.5062527  )
        98        I1     tau(  98) = (   0.7186072   0.2309428   0.5065696  )
        99        I1     tau(  99) = (   0.7188601   0.0256021   0.5067711  )
       100        Cr1    tau( 100) = (   0.6113033   0.2244141   0.5813635  )
       101        Cr1    tau( 101) = (   0.9447380   0.0319056   0.5813635  )
       102        I1     tau( 102) = (   0.8372579   0.2306732   0.6559559  )
       103        I1     tau( 103) = (   0.6593013   0.1282219   0.6561574  )
       104        I1     tau( 104) = (   0.8373768   0.0253816   0.6564743  )
       105        I2     tau( 105) = (   0.6744850   0.1281450   0.9626117  )
       106        I2     tau( 106) = (   0.8297183   0.2309428   0.9629285  )
       107        I2     tau( 107) = (   0.8299712   0.0256021   0.9631300  )
       108        Cr2    tau( 108) = (   0.7224144   0.2244141   1.0377224  )
       109        Cr2    tau( 109) = (   0.7225157   0.0319056   1.0377224  )
       110        I2     tau( 110) = (   0.6150357   0.2306732   1.1123149  )
       111        I2     tau( 111) = (   0.7704124   0.1282219   1.1125163  )
       112        I2     tau( 112) = (   0.9484879   0.0253816   1.1128332  )
       113        I1     tau( 113) = (   0.7300406   0.4168201   0.5062527  )
       114        I1     tau( 114) = (   0.5519406   0.5196179   0.5065696  )
       115        I1     tau( 115) = (   0.5521934   0.3142773   0.5067711  )
       116        Cr1    tau( 116) = (   0.4446366   0.5130893   0.5813635  )
       117        Cr1    tau( 117) = (   0.7780713   0.3205807   0.5813635  )
       118        I1     tau( 118) = (   0.6705913   0.5193484   0.6559559  )
       119        I1     tau( 119) = (   0.4926346   0.4168970   0.6561574  )
       120        I1     tau( 120) = (   0.6707102   0.3140568   0.6564743  )
       121        I2     tau( 121) = (   0.5078184   0.4168201   0.9626117  )
       122        I2     tau( 122) = (   0.6630517   0.5196179   0.9629285  )
       123        I2     tau( 123) = (   0.6633045   0.3142773   0.9631300  )
       124        Cr2    tau( 124) = (   0.5557477   0.5130893   1.0377224  )
       125        Cr2    tau( 125) = (   0.5558491   0.3205807   1.0377224  )
       126        I2     tau( 126) = (   0.4483691   0.5193484   1.1123149  )
       127        I2     tau( 127) = (   0.6037457   0.4168970   1.1125163  )
       128        I2     tau( 128) = (   0.7818213   0.3140568   1.1128332  )
       129        I1     tau( 129) = (   0.5633739   0.7054953   0.5062527  )
       130        I1     tau( 130) = (   0.3852739   0.8082931   0.5065696  )
       131        I1     tau( 131) = (   0.3855267   0.6029524   0.5067711  )
       132        Cr1    tau( 132) = (   0.2779700   0.8017644   0.5813635  )
       133        Cr1    tau( 133) = (   0.6114046   0.6092558   0.5813635  )
       134        I1     tau( 134) = (   0.5039246   0.8080235   0.6559559  )
       135        I1     tau( 135) = (   0.3259679   0.7055721   0.6561574  )
       136        I1     tau( 136) = (   0.5040435   0.6027319   0.6564743  )
       137        I2     tau( 137) = (   0.3411517   0.7054953   0.9626117  )
       138        I2     tau( 138) = (   0.4963850   0.8082931   0.9629285  )
       139        I2     tau( 139) = (   0.4966379   0.6029524   0.9631300  )
       140        Cr2    tau( 140) = (   0.3890811   0.8017644   1.0377224  )
       141        Cr2    tau( 141) = (   0.3891824   0.6092558   1.0377224  )
       142        I2     tau( 142) = (   0.2817024   0.8080235   1.1123149  )
       143        I2     tau( 143) = (   0.4370791   0.7055721   1.1125163  )
       144        I2     tau( 144) = (   0.6151546   0.6027319   1.1128332  )

     --------------------------------------------
     DFT-D3 Dispersion Correction (3-body terms):
     --------------------------------------------
       Reference C6 values for interpolation: 

         atom   Coordination number   C6
         Cr1        0.000          1381.48
         Cr1        1.827           571.38
         Cr1       10.619           306.69
         Cr2        0.000          1381.48
         Cr2        1.827           571.38
         Cr2       10.619           306.69
         I1         0.000           703.93
         I1         0.997           717.00
         I2         0.000           703.93
         I2         0.997           717.00

       Values used:

         atom   Coordination number  R0_AB[au]  C6      C8
         I1         3.281            3.532    717.00  65856.01
         I1         3.290            3.532    717.00  65856.01
         I1         3.293            3.532    717.00  65856.01
         Cr1        5.740            3.252    571.38  52732.00
         Cr1        5.738            3.252    571.38  52732.00
         I1         3.296            3.532    717.00  65856.01
         I1         3.293            3.532    717.00  65856.01
         I1         3.283            3.532    717.00  65856.01
         I2         3.283            3.532    717.00  65856.01
         I2         3.293            3.532    717.00  65856.01
         I2         3.296            3.532    717.00  65856.01
         Cr2        5.740            3.252    571.38  52732.00
         Cr2        5.738            3.252    571.38  52732.00
         I2         3.293            3.532    717.00  65856.01
         I2         3.290            3.532    717.00  65856.01
         I2         3.281            3.532    717.00  65856.01
         I1         3.281            3.532    717.00  65856.01
         I1         3.290            3.532    717.00  65856.01
         I1         3.293            3.532    717.00  65856.01
         Cr1        5.740            3.252    571.38  52732.00
         Cr1        5.738            3.252    571.38  52732.00
         I1         3.296            3.532    717.00  65856.01
         I1         3.293            3.532    717.00  65856.01
         I1         3.283            3.532    717.00  65856.01
         I2         3.283            3.532    717.00  65856.01
         I2         3.293            3.532    717.00  65856.01
         I2         3.296            3.532    717.00  65856.01
         Cr2        5.740            3.252    571.38  52732.00
         Cr2        5.738            3.252    571.38  52732.00
         I2         3.293            3.532    717.00  65856.01
         I2         3.290            3.532    717.00  65856.01
         I2         3.281            3.532    717.00  65856.01
         I1         3.281            3.532    717.00  65856.01
         I1         3.290            3.532    717.00  65856.01
         I1         3.293            3.532    717.00  65856.01
         Cr1        5.740            3.252    571.38  52732.00
         Cr1        5.738            3.252    571.38  52732.00
         I1         3.296            3.532    717.00  65856.01
         I1         3.293            3.532    717.00  65856.01
         I1         3.283            3.532    717.00  65856.01
         I2         3.283            3.532    717.00  65856.01
         I2         3.293            3.532    717.00  65856.01
         I2         3.296            3.532    717.00  65856.01
         Cr2        5.740            3.252    571.38  52732.00
         Cr2        5.738            3.252    571.38  52732.00
         I2         3.293            3.532    717.00  65856.01
         I2         3.290            3.532    717.00  65856.01
         I2         3.281            3.532    717.00  65856.01
         I1         3.281            3.532    717.00  65856.01
         I1         3.290            3.532    717.00  65856.01
         I1         3.293            3.532    717.00  65856.01
         Cr1        5.740            3.252    571.38  52732.00
         Cr1        5.738            3.252    571.38  52732.00
         I1         3.296            3.532    717.00  65856.01
         I1         3.293            3.532    717.00  65856.01
         I1         3.283            3.532    717.00  65856.01
         I2         3.283            3.532    717.00  65856.01
         I2         3.293            3.532    717.00  65856.01
         I2         3.296            3.532    717.00  65856.01
         Cr2        5.740            3.252    571.38  52732.00
         Cr2        5.738            3.252    571.38  52732.00
         I2         3.293            3.532    717.00  65856.01
         I2         3.290            3.532    717.00  65856.01
         I2         3.281            3.532    717.00  65856.01
         I1         3.281            3.532    717.00  65856.01
         I1         3.290            3.532    717.00  65856.01
         I1         3.293            3.532    717.00  65856.01
         Cr1        5.740            3.252    571.38  52732.00
         Cr1        5.738            3.252    571.38  52732.00
         I1         3.296            3.532    717.00  65856.01
         I1         3.293            3.532    717.00  65856.01
         I1         3.283            3.532    717.00  65856.01
         I2         3.283            3.532    717.00  65856.01
         I2         3.293            3.532    717.00  65856.01
         I2         3.296            3.532    717.00  65856.01
         Cr2        5.740            3.252    571.38  52732.00
         Cr2        5.738            3.252    571.38  52732.00
         I2         3.293            3.532    717.00  65856.01
         I2         3.290            3.532    717.00  65856.01
         I2         3.281            3.532    717.00  65856.01
         I1         3.281            3.532    717.00  65856.01
         I1         3.290            3.532    717.00  65856.01
         I1         3.293            3.532    717.00  65856.01
         Cr1        5.740            3.252    571.38  52732.00
         Cr1        5.738            3.252    571.38  52732.00
         I1         3.296            3.532    717.00  65856.01
         I1         3.293            3.532    717.00  65856.01
         I1         3.283            3.532    717.00  65856.01
         I2         3.283            3.532    717.00  65856.01
         I2         3.293            3.532    717.00  65856.01
         I2         3.296            3.532    717.00  65856.01
         Cr2        5.740            3.252    571.38  52732.00
         Cr2        5.738            3.252    571.38  52732.00
         I2         3.293            3.532    717.00  65856.01
         I2         3.290            3.532    717.00  65856.01
         I2         3.281            3.532    717.00  65856.01
         I1         3.281            3.532    717.00  65856.01
         I1         3.290            3.532    717.00  65856.01
         I1         3.293            3.532    717.00  65856.01
         Cr1        5.740            3.252    571.38  52732.00
         Cr1        5.738            3.252    571.38  52732.00
         I1         3.296            3.532    717.00  65856.01
         I1         3.293            3.532    717.00  65856.01
         I1         3.283            3.532    717.00  65856.01
         I2         3.283            3.532    717.00  65856.01
         I2         3.293            3.532    717.00  65856.01
         I2         3.296            3.532    717.00  65856.01
         Cr2        5.740            3.252    571.38  52732.00
         Cr2        5.738            3.252    571.38  52732.00
         I2         3.293            3.532    717.00  65856.01
         I2         3.290            3.532    717.00  65856.01
         I2         3.281            3.532    717.00  65856.01
         I1         3.281            3.532    717.00  65856.01
         I1         3.290            3.532    717.00  65856.01
         I1         3.293            3.532    717.00  65856.01
         Cr1        5.740            3.252    571.38  52732.00
         Cr1        5.738            3.252    571.38  52732.00
         I1         3.296            3.532    717.00  65856.01
         I1         3.293            3.532    717.00  65856.01
         I1         3.283            3.532    717.00  65856.01
         I2         3.283            3.532    717.00  65856.01
         I2         3.293            3.532    717.00  65856.01
         I2         3.296            3.532    717.00  65856.01
         Cr2        5.740            3.252    571.38  52732.00
         Cr2        5.738            3.252    571.38  52732.00
         I2         3.293            3.532    717.00  65856.01
         I2         3.290            3.532    717.00  65856.01
         I2         3.281            3.532    717.00  65856.01
         I1         3.281            3.532    717.00  65856.01
         I1         3.290            3.532    717.00  65856.01
         I1         3.293            3.532    717.00  65856.01
         Cr1        5.740            3.252    571.38  52732.00
         Cr1        5.738            3.252    571.38  52732.00
         I1         3.296            3.532    717.00  65856.01
         I1         3.293            3.532    717.00  65856.01
         I1         3.283            3.532    717.00  65856.01
         I2         3.283            3.532    717.00  65856.01
         I2         3.293            3.532    717.00  65856.01
         I2         3.296            3.532    717.00  65856.01
         Cr2        5.740            3.252    571.38  52732.00
         Cr2        5.738            3.252    571.38  52732.00
         I2         3.293            3.532    717.00  65856.01
         I2         3.290            3.532    717.00  65856.01
         I2         3.281            3.532    717.00  65856.01

         Molecular C6 ( Ry / a.u.^6 ) =  13954869.22


     number of k points=     1  Fermi-Dirac smearing, width (Ry)=  0.0032
                       cart. coord. in units 2pi/alat
        k(    1) = (   0.0000000   0.0000000   0.0000000), wk =   1.0000000

     Dense  grid:  5839812 G-vectors     FFT dimensions: ( 256, 256, 432)

     Estimated max dynamical RAM per process >      13.83 GB

     Estimated total dynamical RAM >     110.63 GB
     Generating pointlists ...
     new r_m :   0.0540 (alat units)  2.1331 (a.u.) for type    1
     new r_m :   0.0540 (alat units)  2.1331 (a.u.) for type    2
     new r_m :   0.0540 (alat units)  2.1331 (a.u.) for type    3
     new r_m :   0.0540 (alat units)  2.1331 (a.u.) for type    4

     Initial potential from superposition of free atoms

     starting charge    1259.9403, renormalised to    1260.0000

     negative rho (up, down):  2.168E-04 2.168E-04
     Starting wfcs are  792 randomized atomic wfcs

     total cpu time spent up to now is       42.0 secs

     Self-consistent Calculation

     iteration #  1     ecut=   100.00 Ry     beta= 0.20
     Davidson diagonalization with overlap
     ethr =  1.00E-02,  avg # of iterations =  2.0

     total cpu time spent up to now is       80.7 secs

     total energy              =   -9207.66090362 Ry
     estimated scf accuracy    <      28.08949129 Ry

     total magnetization       =    -0.00 Bohr mag/cell
     absolute magnetization    =   108.27 Bohr mag/cell

     iteration #  2     ecut=   100.00 Ry     beta= 0.20
     Davidson diagonalization with overlap
     ethr =  2.23E-03,  avg # of iterations =  2.0

     total cpu time spent up to now is      118.5 secs

     total energy              =   -9212.37608277 Ry
     estimated scf accuracy    <       8.91858828 Ry

     total magnetization       =     0.00 Bohr mag/cell
     absolute magnetization    =   110.08 Bohr mag/cell

     iteration #  3     ecut=   100.00 Ry     beta= 0.20
     Davidson diagonalization with overlap
     ethr =  7.08E-04,  avg # of iterations =  2.0

     total cpu time spent up to now is      154.4 secs

     total energy              =   -9214.26645867 Ry
     estimated scf accuracy    <       2.25155584 Ry

     total magnetization       =    -0.00 Bohr mag/cell
     absolute magnetization    =   111.09 Bohr mag/cell

     iteration #  4     ecut=   100.00 Ry     beta= 0.20
     Davidson diagonalization with overlap
     ethr =  1.79E-04,  avg # of iterations =  3.0

     total cpu time spent up to now is      199.9 secs

     total energy              =   -9214.49894655 Ry
     estimated scf accuracy    <       6.65796588 Ry

     total magnetization       =     0.00 Bohr mag/cell
     absolute magnetization    =   129.80 Bohr mag/cell

     iteration #  5     ecut=   100.00 Ry     beta= 0.20
     Davidson diagonalization with overlap
     ethr =  1.79E-04,  avg # of iterations =  2.0

     negative rho (up, down):  2.581E-05 2.653E-05

     total cpu time spent up to now is      239.3 secs

     total energy              =   -9214.99220588 Ry
     estimated scf accuracy    <       0.77175117 Ry

     total magnetization       =    -0.00 Bohr mag/cell
     absolute magnetization    =   122.24 Bohr mag/cell

     iteration #  6     ecut=   100.00 Ry     beta= 0.20
     Davidson diagonalization with overlap
     ethr =  6.13E-05,  avg # of iterations =  2.0

     negative rho (up, down):  1.185E-04 1.191E-04

     total cpu time spent up to now is      282.5 secs

     total energy              =   -9215.22172545 Ry
     estimated scf accuracy    <       0.86548658 Ry

     total magnetization       =     0.00 Bohr mag/cell
     absolute magnetization    =   129.73 Bohr mag/cell

     iteration #  7     ecut=   100.00 Ry     beta= 0.20
     Davidson diagonalization with overlap
     ethr =  6.13E-05,  avg # of iterations =  1.0

     negative rho (up, down):  8.908E-05 8.950E-05

     total cpu time spent up to now is      319.0 secs

     total energy              =   -9215.21588001 Ry
     estimated scf accuracy    <       0.27524142 Ry

     total magnetization       =    -0.00 Bohr mag/cell
     absolute magnetization    =   130.09 Bohr mag/cell

     iteration #  8     ecut=   100.00 Ry     beta= 0.20
     Davidson diagonalization with overlap
     ethr =  2.18E-05,  avg # of iterations =  1.0

     negative rho (up, down):  3.276E-05 3.281E-05

     total cpu time spent up to now is      355.5 secs

     total energy              =   -9215.18565017 Ry
     estimated scf accuracy    <       0.14223617 Ry

     total magnetization       =    -0.00 Bohr mag/cell
     absolute magnetization    =   130.07 Bohr mag/cell

     iteration #  9     ecut=   100.00 Ry     beta= 0.20
     Davidson diagonalization with overlap
     ethr =  1.13E-05,  avg # of iterations =  2.0

     negative rho (up, down):  3.468E-05 3.493E-05

     total cpu time spent up to now is      397.0 secs

     total energy              =   -9215.21519745 Ry
     estimated scf accuracy    <       0.01217629 Ry

     total magnetization       =     0.00 Bohr mag/cell
     absolute magnetization    =   130.78 Bohr mag/cell

     iteration # 10     ecut=   100.00 Ry     beta= 0.20
     Davidson diagonalization with overlap
     ethr =  9.66E-07,  avg # of iterations =  4.0

     negative rho (up, down):  2.748E-05 2.766E-05

     total cpu time spent up to now is      441.6 secs

     total energy              =   -9215.21735100 Ry
     estimated scf accuracy    <       0.04468210 Ry

     total magnetization       =    -0.00 Bohr mag/cell
     absolute magnetization    =   131.92 Bohr mag/cell

     iteration # 11     ecut=   100.00 Ry     beta= 0.20
     Davidson diagonalization with overlap
     ethr =  9.66E-07,  avg # of iterations =  2.0

     negative rho (up, down):  7.137E-06 7.159E-06

     total cpu time spent up to now is      481.2 secs

     total energy              =   -9215.21319951 Ry
     estimated scf accuracy    <       0.01546192 Ry

     total magnetization       =     0.00 Bohr mag/cell
     absolute magnetization    =   132.93 Bohr mag/cell

     iteration # 12     ecut=   100.00 Ry     beta= 0.20
     Davidson diagonalization with overlap
     ethr =  9.66E-07,  avg # of iterations =  2.0

     negative rho (up, down):  3.692E-06 3.711E-06

     total cpu time spent up to now is      522.9 secs

     total energy              =   -9215.21690316 Ry
     estimated scf accuracy    <       0.00031236 Ry

     total magnetization       =     0.00 Bohr mag/cell
     absolute magnetization    =   133.47 Bohr mag/cell

     iteration # 13     ecut=   100.00 Ry     beta= 0.20
     Davidson diagonalization with overlap
     ethr =  2.48E-08,  avg # of iterations =  3.0

     negative rho (up, down):  7.731E-07 7.808E-07

     total cpu time spent up to now is      563.9 secs

     total energy              =   -9215.21706512 Ry
     estimated scf accuracy    <       0.00011475 Ry

     total magnetization       =    -0.00 Bohr mag/cell
     absolute magnetization    =   133.62 Bohr mag/cell

     iteration # 14     ecut=   100.00 Ry     beta= 0.20
     Davidson diagonalization with overlap
     ethr =  9.11E-09,  avg # of iterations =  2.0

     total cpu time spent up to now is      607.8 secs

     total energy              =   -9215.21714330 Ry
     estimated scf accuracy    <       0.00010132 Ry

     total magnetization       =    -0.00 Bohr mag/cell
     absolute magnetization    =   133.86 Bohr mag/cell

     iteration # 15     ecut=   100.00 Ry     beta= 0.20
     Davidson diagonalization with overlap
     ethr =  8.04E-09,  avg # of iterations =  2.0

     total cpu time spent up to now is      647.5 secs

     total energy              =   -9215.21715248 Ry
     estimated scf accuracy    <       0.00002128 Ry

     total magnetization       =    -0.00 Bohr mag/cell
     absolute magnetization    =   133.98 Bohr mag/cell

     iteration # 16     ecut=   100.00 Ry     beta= 0.20
     Davidson diagonalization with overlap
     ethr =  1.69E-09,  avg # of iterations =  3.5

     total cpu time spent up to now is      690.0 secs

     total energy              =   -9215.21715943 Ry
     estimated scf accuracy    <       0.00001638 Ry

     total magnetization       =     0.00 Bohr mag/cell
     absolute magnetization    =   134.02 Bohr mag/cell

     iteration # 17     ecut=   100.00 Ry     beta= 0.20
     Davidson diagonalization with overlap
     ethr =  1.30E-09,  avg # of iterations =  2.0

     total cpu time spent up to now is      731.4 secs

     total energy              =   -9215.21716341 Ry
     estimated scf accuracy    <       0.00000066 Ry

     total magnetization       =     0.00 Bohr mag/cell
     absolute magnetization    =   134.05 Bohr mag/cell

     iteration # 18     ecut=   100.00 Ry     beta= 0.20
     Davidson diagonalization with overlap
     ethr =  5.21E-11,  avg # of iterations =  4.0

     total cpu time spent up to now is      772.5 secs

     total energy              =   -9215.21716365 Ry
     estimated scf accuracy    <       0.00000021 Ry

     total magnetization       =     0.00 Bohr mag/cell
     absolute magnetization    =   134.06 Bohr mag/cell

     iteration # 19     ecut=   100.00 Ry     beta= 0.20
     Davidson diagonalization with overlap
     ethr =  1.71E-11,  avg # of iterations =  4.0
 
     Magnetic moment per site  (integrated on atomic sphere of radius R)
     atom   1 (R=0.054)  charge=  4.1345  magn= -0.0685
     atom   2 (R=0.054)  charge=  4.1356  magn= -0.0680
     atom   3 (R=0.054)  charge=  4.1357  magn= -0.0679
     atom   4 (R=0.054)  charge= 12.4154  magn=  3.0175
     atom   5 (R=0.054)  charge= 12.4141  magn=  3.0189
     atom   6 (R=0.054)  charge=  4.1356  magn= -0.0680
     atom   7 (R=0.054)  charge=  4.1353  magn= -0.0680
     atom   8 (R=0.054)  charge=  4.1345  magn= -0.0685
     atom   9 (R=0.054)  charge=  4.1343  magn=  0.0685
     atom  10 (R=0.054)  charge=  4.1355  magn=  0.0680
     atom  11 (R=0.054)  charge=  4.1355  magn=  0.0680
     atom  12 (R=0.054)  charge= 12.4154  magn= -3.0175
     atom  13 (R=0.054)  charge= 12.4142  magn= -3.0189
     atom  14 (R=0.054)  charge=  4.1356  magn=  0.0679
     atom  15 (R=0.054)  charge=  4.1356  magn=  0.0680
     atom  16 (R=0.054)  charge=  4.1346  magn=  0.0685
     atom  17 (R=0.054)  charge=  4.1346  magn= -0.0685
     atom  18 (R=0.054)  charge=  4.1356  magn= -0.0680
     atom  19 (R=0.054)  charge=  4.1356  magn= -0.0679
     atom  20 (R=0.054)  charge= 12.4154  magn=  3.0175
     atom  21 (R=0.054)  charge= 12.4141  magn=  3.0189
     atom  22 (R=0.054)  charge=  4.1356  magn= -0.0680
     atom  23 (R=0.054)  charge=  4.1354  magn= -0.0680
     atom  24 (R=0.054)  charge=  4.1345  magn= -0.0685
     atom  25 (R=0.054)  charge=  4.1344  magn=  0.0685
     atom  26 (R=0.054)  charge=  4.1355  magn=  0.0680
     atom  27 (R=0.054)  charge=  4.1355  magn=  0.0680
     atom  28 (R=0.054)  charge= 12.4154  magn= -3.0175
     atom  29 (R=0.054)  charge= 12.4141  magn= -3.0189
     atom  30 (R=0.054)  charge=  4.1357  magn=  0.0679
     atom  31 (R=0.054)  charge=  4.1356  magn=  0.0680
     atom  32 (R=0.054)  charge=  4.1345  magn=  0.0685
     atom  33 (R=0.054)  charge=  4.1346  magn= -0.0685
     atom  34 (R=0.054)  charge=  4.1356  magn= -0.0680
     atom  35 (R=0.054)  charge=  4.1356  magn= -0.0679
     atom  36 (R=0.054)  charge= 12.4153  magn=  3.0175
     atom  37 (R=0.054)  charge= 12.4141  magn=  3.0189
     atom  38 (R=0.054)  charge=  4.1355  magn= -0.0680
     atom  39 (R=0.054)  charge=  4.1354  magn= -0.0680
     atom  40 (R=0.054)  charge=  4.1345  magn= -0.0685
     atom  41 (R=0.054)  charge=  4.1345  magn=  0.0685
     atom  42 (R=0.054)  charge=  4.1353  magn=  0.0680
     atom  43 (R=0.054)  charge=  4.1356  magn=  0.0680
     atom  44 (R=0.054)  charge= 12.4154  magn= -3.0175
     atom  45 (R=0.054)  charge= 12.4141  magn= -3.0188
     atom  46 (R=0.054)  charge=  4.1355  magn=  0.0679
     atom  47 (R=0.054)  charge=  4.1356  magn=  0.0680
     atom  48 (R=0.054)  charge=  4.1345  magn=  0.0685
     atom  49 (R=0.054)  charge=  4.1345  magn= -0.0685
     atom  50 (R=0.054)  charge=  4.1356  magn= -0.0680
     atom  51 (R=0.054)  charge=  4.1357  magn= -0.0679
     atom  52 (R=0.054)  charge= 12.4154  magn=  3.0175
     atom  53 (R=0.054)  charge= 12.4142  magn=  3.0189
     atom  54 (R=0.054)  charge=  4.1355  magn= -0.0680
     atom  55 (R=0.054)  charge=  4.1355  magn= -0.0680
     atom  56 (R=0.054)  charge=  4.1345  magn= -0.0685
     atom  57 (R=0.054)  charge=  4.1345  magn=  0.0685
     atom  58 (R=0.054)  charge=  4.1354  magn=  0.0680
     atom  59 (R=0.054)  charge=  4.1355  magn=  0.0680
     atom  60 (R=0.054)  charge= 12.4154  magn= -3.0175
     atom  61 (R=0.054)  charge= 12.4141  magn= -3.0189
     atom  62 (R=0.054)  charge=  4.1356  magn=  0.0679
     atom  63 (R=0.054)  charge=  4.1354  magn=  0.0680
     atom  64 (R=0.054)  charge=  4.1346  magn=  0.0685
     atom  65 (R=0.054)  charge=  4.1345  magn= -0.0685
     atom  66 (R=0.054)  charge=  4.1356  magn= -0.0680
     atom  67 (R=0.054)  charge=  4.1357  magn= -0.0679
     atom  68 (R=0.054)  charge= 12.4154  magn=  3.0175
     atom  69 (R=0.054)  charge= 12.4142  magn=  3.0189
     atom  70 (R=0.054)  charge=  4.1355  magn= -0.0680
     atom  71 (R=0.054)  charge=  4.1355  magn= -0.0680
     atom  72 (R=0.054)  charge=  4.1344  magn= -0.0685
     atom  73 (R=0.054)  charge=  4.1344  magn=  0.0685
     atom  74 (R=0.054)  charge=  4.1354  magn=  0.0680
     atom  75 (R=0.054)  charge=  4.1355  magn=  0.0680
     atom  76 (R=0.054)  charge= 12.4154  magn= -3.0175
     atom  77 (R=0.054)  charge= 12.4141  magn= -3.0189
     atom  78 (R=0.054)  charge=  4.1357  magn=  0.0679
     atom  79 (R=0.054)  charge=  4.1356  magn=  0.0680
     atom  80 (R=0.054)  charge=  4.1346  magn=  0.0685
     atom  81 (R=0.054)  charge=  4.1346  magn= -0.0685
     atom  82 (R=0.054)  charge=  4.1355  magn= -0.0680
     atom  83 (R=0.054)  charge=  4.1357  magn= -0.0679
     atom  84 (R=0.054)  charge= 12.4154  magn=  3.0175
     atom  85 (R=0.054)  charge= 12.4141  magn=  3.0189
     atom  86 (R=0.054)  charge=  4.1355  magn= -0.0680
     atom  87 (R=0.054)  charge=  4.1354  magn= -0.0680
     atom  88 (R=0.054)  charge=  4.1345  magn= -0.0685
     atom  89 (R=0.054)  charge=  4.1345  magn=  0.0685
     atom  90 (R=0.054)  charge=  4.1354  magn=  0.0680
     atom  91 (R=0.054)  charge=  4.1355  magn=  0.0680
     atom  92 (R=0.054)  charge= 12.4154  magn= -3.0175
     atom  93 (R=0.054)  charge= 12.4142  magn= -3.0189
     atom  94 (R=0.054)  charge=  4.1357  magn=  0.0679
     atom  95 (R=0.054)  charge=  4.1356  magn=  0.0680
     atom  96 (R=0.054)  charge=  4.1345  magn=  0.0685
     atom  97 (R=0.054)  charge=  4.1346  magn= -0.0685
     atom  98 (R=0.054)  charge=  4.1355  magn= -0.0680
     atom  99 (R=0.054)  charge=  4.1357  magn= -0.0679
     atom 100 (R=0.054)  charge= 12.4154  magn=  3.0175
     atom 101 (R=0.054)  charge= 12.4141  magn=  3.0189
     atom 102 (R=0.054)  charge=  4.1356  magn= -0.0680
     atom 103 (R=0.054)  charge=  4.1354  magn= -0.0680
     atom 104 (R=0.054)  charge=  4.1345  magn= -0.0685
     atom 105 (R=0.054)  charge=  4.1345  magn=  0.0685
     atom 106 (R=0.054)  charge=  4.1355  magn=  0.0680
     atom 107 (R=0.054)  charge=  4.1356  magn=  0.0680
     atom 108 (R=0.054)  charge= 12.4154  magn= -3.0175
     atom 109 (R=0.054)  charge= 12.4141  magn= -3.0189
     atom 110 (R=0.054)  charge=  4.1357  magn=  0.0679
     atom 111 (R=0.054)  charge=  4.1355  magn=  0.0680
     atom 112 (R=0.054)  charge=  4.1346  magn=  0.0685
     atom 113 (R=0.054)  charge=  4.1346  magn= -0.0685
     atom 114 (R=0.054)  charge=  4.1356  magn= -0.0680
     atom 115 (R=0.054)  charge=  4.1355  magn= -0.0679
     atom 116 (R=0.054)  charge= 12.4154  magn=  3.0175
     atom 117 (R=0.054)  charge= 12.4141  magn=  3.0189
     atom 118 (R=0.054)  charge=  4.1356  magn= -0.0680
     atom 119 (R=0.054)  charge=  4.1355  magn= -0.0680
     atom 120 (R=0.054)  charge=  4.1344  magn= -0.0685
     atom 121 (R=0.054)  charge=  4.1344  magn=  0.0685
     atom 122 (R=0.054)  charge=  4.1355  magn=  0.0680
     atom 123 (R=0.054)  charge=  4.1356  magn=  0.0680
     atom 124 (R=0.054)  charge= 12.4154  magn= -3.0175
     atom 125 (R=0.054)  charge= 12.4142  magn= -3.0189
     atom 126 (R=0.054)  charge=  4.1356  magn=  0.0679
     atom 127 (R=0.054)  charge=  4.1355  magn=  0.0680
     atom 128 (R=0.054)  charge=  4.1346  magn=  0.0685
     atom 129 (R=0.054)  charge=  4.1346  magn= -0.0685
     atom 130 (R=0.054)  charge=  4.1354  magn= -0.0680
     atom 131 (R=0.054)  charge=  4.1357  magn= -0.0679
     atom 132 (R=0.054)  charge= 12.4154  magn=  3.0175
     atom 133 (R=0.054)  charge= 12.4141  magn=  3.0189
     atom 134 (R=0.054)  charge=  4.1355  magn= -0.0680
     atom 135 (R=0.054)  charge=  4.1355  magn= -0.0680
     atom 136 (R=0.054)  charge=  4.1344  magn= -0.0685
     atom 137 (R=0.054)  charge=  4.1345  magn=  0.0685
     atom 138 (R=0.054)  charge=  4.1355  magn=  0.0680
     atom 139 (R=0.054)  charge=  4.1355  magn=  0.0680
     atom 140 (R=0.054)  charge= 12.4153  magn= -3.0175
     atom 141 (R=0.054)  charge= 12.4141  magn= -3.0189
     atom 142 (R=0.054)  charge=  4.1357  magn=  0.0679
     atom 143 (R=0.054)  charge=  4.1356  magn=  0.0680
     atom 144 (R=0.054)  charge=  4.1346  magn=  0.0685

     total cpu time spent up to now is      811.4 secs

     End of self-consistent calculation

 ------ SPIN UP ------------


          k = 0.0000 0.0000 0.0000 (729891 PWs)   bands (ev):

   -74.3771 -74.3771 -74.3771 -74.3771 -74.3771 -74.3771 -74.3770 -74.3770
   -74.3770 -74.3755 -74.3755 -74.3755 -74.3755 -74.3755 -74.3755 -74.3755
   -74.3755 -74.3755 -71.1443 -71.1443 -71.1443 -71.1442 -71.1442 -71.1442
   -71.1442 -71.1442 -71.1442 -71.1442 -71.1442 -71.1441 -71.1441 -71.1441
   -71.1441 -71.1441 -71.1441 -71.1441 -45.7769 -45.7769 -45.7769 -45.7768
   -45.7768 -45.7768 -45.7768 -45.7768 -45.7768 -45.7754 -45.7754 -45.7754
   -45.7754 -45.7753 -45.7753 -45.7753 -45.7753 -45.7753 -45.7709 -45.7709
   -45.7708 -45.7708 -45.7708 -45.7708 -45.7708 -45.7708 -45.7707 -45.7707
   -45.7704 -45.7704 -45.7704 -45.7704 -45.7704 -45.7704 -45.7701 -45.7701
   -45.7687 -45.7687 -45.7685 -45.7685 -45.7685 -45.7684 -45.7682 -45.7681
   -45.7681 -45.7681 -45.7681 -45.7678 -45.7677 -45.7677 -45.7677 -45.7677
   -45.7677 -45.7677 -42.5176 -42.5174 -42.5174 -42.5174 -42.5174 -42.5174
   -42.5174 -42.5172 -42.5172 -42.5169 -42.5169 -42.5167 -42.5167 -42.5167
   -42.5167 -42.5167 -42.5167 -42.5165 -42.4899 -42.4899 -42.4898 -42.4898
   -42.4898 -42.4898 -42.4898 -42.4898 -42.4896 -42.4896 -42.4890 -42.4890
   -42.4890 -42.4890 -42.4890 -42.4890 -42.4881 -42.4881 -42.4880 -42.4880
   -42.4871 -42.4871 -42.4871 -42.4871 -42.4870 -42.4870 -42.4866 -42.4865
   -42.4864 -42.4864 -42.4863 -42.4863 -42.4863 -42.4863 -42.4862 -42.4862
   -14.5015 -14.4781 -14.3081 -14.3081 -14.3081 -14.3081 -14.3071 -14.3071
   -14.2785 -14.2785 -14.2785 -14.2785 -14.2774 -14.2774 -14.0432 -14.0432
   -14.0377 -14.0377 -14.0035 -14.0035 -13.9977 -13.9977 -13.8122 -13.8122
   -13.8086 -13.8086 -13.8086 -13.8086 -13.8044 -13.7591 -13.7591 -13.7551
   -13.7551 -13.7551 -13.7551 -13.7387 -13.7306 -13.7306 -13.6992 -13.6992
   -13.6987 -13.6987 -13.6986 -13.6986 -13.6666 -13.6666 -13.6334 -13.6334
   -13.6333 -13.6333 -13.6332 -13.6332 -13.6330 -13.6330 -13.6329 -13.6329
   -13.6314 -13.6314 -13.5760 -13.5760 -13.5749 -13.5749 -13.5737 -13.5687
   -13.5682 -13.5682 -13.5682 -13.5682 -13.5662 -13.5662 -13.5108 -13.5108
   -13.5095 -13.5095 -13.5087 -13.5034 -13.4967 -13.4967 -13.4950 -13.4950
   -13.4949 -13.4949 -13.4879 -13.4879 -13.4663 -13.4663 -13.4663 -13.4663
   -13.4632 -13.4632 -13.4447 -13.4390 -13.4325 -13.4325 -13.4306 -13.4306
   -13.4305 -13.4305 -13.4254 -13.4254 -13.4040 -13.4040 -13.4040 -13.4040
   -13.4006 -13.4006 -13.3809 -13.3748  -6.2088  -6.1213  -6.1213  -6.1213
    -6.1213  -6.1200  -6.1200  -5.9311  -5.8776  -5.8776  -5.8776  -5.8776
    -5.8765  -5.8765  -5.7280  -5.7280  -5.7231  -5.7231  -5.6542  -5.5903
    -5.5903  -5.5853  -5.5853  -5.5853  -5.5853  -5.4937  -5.4937  -5.4889
    -5.4889  -5.4150  -5.3518  -5.3518  -5.3472  -5.3472  -5.3471  -5.3471
    -5.2094  -5.2094  -5.2080  -5.2080  -5.2080  -5.2080  -5.2078  -5.2078
    -5.1504  -5.1504  -5.1504  -5.1504  -5.1503  -5.1503  -5.1258  -5.1258
    -5.1258  -5.1258  -5.1242  -5.1242  -5.1092  -5.1077  -5.0531  -5.0531
    -5.0508  -5.0508  -5.0455  -5.0384  -4.9889  -4.9889  -4.9889  -4.9889
    -4.9889  -4.9889  -4.9578  -4.9550  -4.9387  -4.9387  -4.9232  -4.9232
    -4.9213  -4.9213  -4.9212  -4.9212  -4.9209  -4.9209  -4.9209  -4.9209
    -4.7702  -4.7630  -4.7612  -4.7406  -4.7406  -4.7354  -4.7354  -4.7353
    -4.7353  -4.7337  -4.7321  -4.7321  -4.7267  -4.7267  -4.7219  -4.7219
    -4.7219  -4.7219  -4.7219  -4.7219  -4.6559  -4.6559  -4.6510  -4.6510
    -4.6510  -4.6510  -4.5772  -4.5772  -4.4777  -4.4777  -4.4751  -4.4751
    -4.4750  -4.4750  -4.3837  -4.3837  -4.3809  -4.3809  -4.3809  -4.3809
    -4.3719  -4.3719  -4.3685  -4.3626  -4.3626  -4.3622  -4.3544  -4.3544
    -4.3502  -4.3502  -4.3349  -4.3349  -4.3349  -4.3348  -4.3317  -4.3317
    -4.2593  -4.2593  -4.2565  -4.2565  -4.2565  -4.2565  -4.2067  -4.0118
    -4.0118  -4.0118  -4.0118  -4.0067  -4.0067  -3.9497  -3.9241  -3.9241
    -3.8990  -3.8990  -3.8989  -3.8989  -3.8950  -3.8950  -3.8949  -3.8949
    -3.8917  -3.8917  -3.8902  -3.8887  -3.8887  -3.8868  -3.7963  -3.7893
    -3.7761  -3.7761  -3.7240  -3.7240  -3.7240  -3.7240  -3.7217  -3.7217
    -3.6718  -3.6718  -3.6006  -3.6006  -3.5941  -3.5941  -3.5941  -3.5941
    -3.5518  -3.5518  -3.5515  -3.5515  -3.5496  -3.5496  -3.5229  -3.5229
    -3.5219  -3.5219  -3.5216  -3.5216  -3.4751  -3.4751  -3.4473  -3.4473
    -3.4409  -3.4409  -3.4271  -3.4239  -3.4146  -3.4146  -3.4129  -3.4129
    -3.3829  -3.3829  -3.3773  -3.3773  -3.3772  -3.3772  -3.3252  -3.3100
    -3.2692  -3.2692  -3.2463  -3.2463  -3.2453  -3.2452  -3.2448  -3.2448
    -3.2436  -3.2436  -3.2431  -3.2431  -3.2408  -3.2408  -3.1834  -3.1834
    -3.1829  -3.1828  -3.1828  -3.1828  -3.1801  -3.1801  -3.1801  -3.1801
    -3.1800  -3.1800  -3.1384  -3.1384  -3.1374  -3.1374  -3.0791  -3.0791
    -3.0786  -3.0786  -3.0779  -3.0779  -3.0707  -3.0707  -3.0669  -3.0669
    -3.0665  -3.0665  -2.9716  -2.9700  -2.9075  -2.8833  -2.8833  -2.8809
    -2.8809  -2.8807  -2.8807  -2.8457  -2.8457  -2.8373  -2.8373  -2.8346
    -2.8346  -2.8157  -2.7958  -2.7958  -2.7957  -2.7957  -2.7957  -2.7957
    -2.7797  -2.7797  -2.7761  -2.7761  -2.7575  -2.7111  -2.7111  -2.6718
    -2.6718  -2.6159  -2.6159  -2.6157  -2.6157  -2.6148  -2.6148  -2.6129
    -2.6129  -2.6119  -2.6119  -2.6118  -2.6118  -2.5566  -2.5564  -2.4831
    -2.4774  -2.4618  -2.4449  -2.4449  -2.4448  -2.4448  -2.4424  -2.4424
    -2.4293  -2.4293  -2.4292  -2.4292  -2.4274  -2.4274  -2.4166  -2.4166
    -2.4135  -2.4135  -2.3853  -2.3853  -2.3842  -2.3842  -2.3841  -2.3841
    -2.3068  -2.3068  -2.2997  -2.2997  -2.2996  -2.2996  -2.2953  -2.2953
    -2.2838  -2.2789  -2.2287  -2.2287  -2.2265  -2.2265  -2.2262  -2.2262
    -2.2207  -2.2207  -2.2204  -2.2204  -2.2199  -2.2199  -2.1824  -2.1824
    -2.1805  -2.1805  -2.1064  -2.1064  -2.1051  -2.1051  -2.1050  -2.1050
    -2.0205  -2.0194  -1.9524  -1.9524  -1.9475  -1.9475  -1.8585  -1.8585
    -1.8585  -1.8585  -1.8565  -1.8565  -1.8363  -1.8338  -0.5615  -0.5600
    -0.5493  -0.5493  -0.5411  -0.5411  -0.5392  -0.5392  -0.5391  -0.5391
    -0.4920  -0.4920  -0.4920  -0.4920  -0.4892  -0.4892  -0.4385  -0.4385
    -0.4385  -0.4385  -0.4349  -0.4349  -0.4345  -0.4345  -0.4314  -0.4314
    -0.3319  -0.3319  -0.3294  -0.3294  -0.3293  -0.3293  -0.1897  -0.1897
    -0.1597  -0.1560   0.3292   0.3292   0.3300   0.3300   0.3300   0.3300
     0.3310   0.3310   0.3355   0.3355   0.3641   0.3641   0.3641   0.3641
     0.3650   0.3650   0.4163   0.4180   0.4452   0.4822   0.4822   0.5240
     0.5541   0.5541   0.5556   0.5556   0.5559   0.5559   0.5559   0.5559
     0.6782   0.6782   0.6782   0.6782   0.6799   0.6799   0.7011   0.7011
     0.7011   0.7011   0.7013   0.7013   0.7393   0.7398   0.7398   0.7407
     0.7430   0.7430   0.7651   0.7651   0.7678   0.7678   0.7678   0.7678
     0.9710   0.9727   0.9754   0.9754   0.9755   0.9755   0.9778   0.9778
     0.9998   0.9998   1.0005   1.0005   1.0006   1.0006   1.0148   1.0148
     1.0793   1.0794   1.0794   1.0794   1.0809   1.0809   1.1183   1.1183
     1.1196   1.1196   1.1376   1.1376   1.1386   1.1386   1.1387   1.1387
     1.2136   1.2136   1.2615   1.2636

 ------ SPIN DOWN ----------


          k = 0.0000 0.0000 0.0000 (729891 PWs)   bands (ev):

   -74.3771 -74.3771 -74.3771 -74.3771 -74.3771 -74.3771 -74.3770 -74.3770
   -74.3770 -74.3755 -74.3755 -74.3755 -74.3755 -74.3755 -74.3755 -74.3755
   -74.3755 -74.3755 -71.1443 -71.1443 -71.1443 -71.1443 -71.1442 -71.1442
   -71.1442 -71.1442 -71.1442 -71.1442 -71.1442 -71.1441 -71.1441 -71.1441
   -71.1441 -71.1441 -71.1441 -71.1441 -45.7769 -45.7769 -45.7768 -45.7768
   -45.7768 -45.7768 -45.7768 -45.7768 -45.7768 -45.7754 -45.7754 -45.7753
   -45.7753 -45.7753 -45.7753 -45.7753 -45.7753 -45.7753 -45.7709 -45.7709
   -45.7708 -45.7708 -45.7708 -45.7708 -45.7708 -45.7708 -45.7707 -45.7707
   -45.7704 -45.7704 -45.7704 -45.7704 -45.7704 -45.7704 -45.7701 -45.7701
   -45.7687 -45.7687 -45.7685 -45.7685 -45.7685 -45.7684 -45.7682 -45.7681
   -45.7681 -45.7681 -45.7681 -45.7678 -45.7677 -45.7677 -45.7677 -45.7677
   -45.7677 -45.7677 -42.5176 -42.5174 -42.5174 -42.5174 -42.5174 -42.5174
   -42.5174 -42.5172 -42.5172 -42.5169 -42.5169 -42.5167 -42.5167 -42.5167
   -42.5167 -42.5167 -42.5167 -42.5165 -42.4899 -42.4899 -42.4898 -42.4898
   -42.4898 -42.4898 -42.4898 -42.4898 -42.4896 -42.4896 -42.4891 -42.4890
   -42.4890 -42.4890 -42.4890 -42.4890 -42.4881 -42.4881 -42.4880 -42.4880
   -42.4871 -42.4871 -42.4871 -42.4871 -42.4870 -42.4870 -42.4866 -42.4865
   -42.4864 -42.4864 -42.4863 -42.4863 -42.4863 -42.4863 -42.4862 -42.4862
   -14.5015 -14.4781 -14.3081 -14.3081 -14.3081 -14.3081 -14.3071 -14.3071
   -14.2785 -14.2785 -14.2785 -14.2785 -14.2774 -14.2774 -14.0432 -14.0432
   -14.0378 -14.0378 -14.0035 -14.0035 -13.9977 -13.9976 -13.8122 -13.8122
   -13.8086 -13.8086 -13.8086 -13.8086 -13.8045 -13.7591 -13.7591 -13.7551
   -13.7551 -13.7551 -13.7551 -13.7387 -13.7306 -13.7306 -13.6992 -13.6992
   -13.6987 -13.6987 -13.6987 -13.6987 -13.6666 -13.6666 -13.6334 -13.6334
   -13.6333 -13.6333 -13.6333 -13.6333 -13.6330 -13.6330 -13.6329 -13.6329
   -13.6314 -13.6314 -13.5760 -13.5760 -13.5749 -13.5749 -13.5737 -13.5687
   -13.5682 -13.5682 -13.5682 -13.5682 -13.5662 -13.5662 -13.5108 -13.5108
   -13.5095 -13.5095 -13.5087 -13.5034 -13.4967 -13.4967 -13.4950 -13.4950
   -13.4949 -13.4949 -13.4879 -13.4879 -13.4663 -13.4663 -13.4663 -13.4663
   -13.4632 -13.4632 -13.4447 -13.4390 -13.4325 -13.4325 -13.4306 -13.4306
   -13.4305 -13.4305 -13.4254 -13.4254 -13.4040 -13.4040 -13.4040 -13.4040
   -13.4006 -13.4006 -13.3809 -13.3747  -6.2088  -6.1213  -6.1213  -6.1213
    -6.1213  -6.1200  -6.1200  -5.9311  -5.8776  -5.8776  -5.8776  -5.8776
    -5.8766  -5.8766  -5.7280  -5.7280  -5.7231  -5.7231  -5.6542  -5.5903
    -5.5903  -5.5853  -5.5853  -5.5853  -5.5853  -5.4937  -5.4937  -5.4889
    -5.4889  -5.4150  -5.3518  -5.3518  -5.3472  -5.3472  -5.3472  -5.3471
    -5.2094  -5.2094  -5.2080  -5.2080  -5.2080  -5.2080  -5.2078  -5.2078
    -5.1505  -5.1505  -5.1504  -5.1504  -5.1503  -5.1503  -5.1258  -5.1258
    -5.1258  -5.1258  -5.1242  -5.1242  -5.1092  -5.1077  -5.0531  -5.0531
    -5.0508  -5.0508  -5.0455  -5.0384  -4.9889  -4.9889  -4.9889  -4.9889
    -4.9889  -4.9889  -4.9578  -4.9550  -4.9387  -4.9387  -4.9233  -4.9233
    -4.9213  -4.9213  -4.9212  -4.9212  -4.9209  -4.9209  -4.9209  -4.9209
    -4.7702  -4.7630  -4.7613  -4.7406  -4.7406  -4.7354  -4.7354  -4.7353
    -4.7353  -4.7338  -4.7321  -4.7321  -4.7267  -4.7267  -4.7219  -4.7219
    -4.7219  -4.7219  -4.7219  -4.7219  -4.6559  -4.6559  -4.6510  -4.6510
    -4.6510  -4.6510  -4.5772  -4.5772  -4.4777  -4.4777  -4.4751  -4.4751
    -4.4751  -4.4751  -4.3837  -4.3837  -4.3809  -4.3809  -4.3808  -4.3808
    -4.3719  -4.3719  -4.3685  -4.3627  -4.3627  -4.3622  -4.3544  -4.3544
    -4.3502  -4.3502  -4.3349  -4.3349  -4.3348  -4.3348  -4.3317  -4.3317
    -4.2593  -4.2593  -4.2565  -4.2565  -4.2565  -4.2565  -4.2066  -4.0118
    -4.0118  -4.0118  -4.0118  -4.0067  -4.0067  -3.9497  -3.9240  -3.9240
    -3.8990  -3.8990  -3.8989  -3.8989  -3.8950  -3.8950  -3.8949  -3.8949
    -3.8917  -3.8917  -3.8902  -3.8887  -3.8887  -3.8868  -3.7963  -3.7893
    -3.7761  -3.7761  -3.7240  -3.7240  -3.7240  -3.7240  -3.7217  -3.7217
    -3.6718  -3.6718  -3.6006  -3.6006  -3.5941  -3.5941  -3.5941  -3.5941
    -3.5518  -3.5518  -3.5515  -3.5515  -3.5496  -3.5496  -3.5229  -3.5229
    -3.5219  -3.5219  -3.5216  -3.5216  -3.4751  -3.4751  -3.4473  -3.4473
    -3.4409  -3.4409  -3.4271  -3.4239  -3.4146  -3.4146  -3.4129  -3.4129
    -3.3829  -3.3829  -3.3774  -3.3774  -3.3772  -3.3772  -3.3252  -3.3100
    -3.2692  -3.2692  -3.2463  -3.2463  -3.2453  -3.2453  -3.2448  -3.2447
    -3.2436  -3.2436  -3.2431  -3.2431  -3.2408  -3.2408  -3.1834  -3.1834
    -3.1829  -3.1829  -3.1828  -3.1828  -3.1801  -3.1801  -3.1801  -3.1801
    -3.1800  -3.1800  -3.1384  -3.1384  -3.1375  -3.1375  -3.0791  -3.0791
    -3.0786  -3.0786  -3.0779  -3.0779  -3.0707  -3.0707  -3.0669  -3.0669
    -3.0665  -3.0665  -2.9716  -2.9700  -2.9075  -2.8833  -2.8833  -2.8809
    -2.8809  -2.8807  -2.8807  -2.8457  -2.8457  -2.8373  -2.8373  -2.8346
    -2.8346  -2.8157  -2.7957  -2.7957  -2.7957  -2.7957  -2.7957  -2.7957
    -2.7798  -2.7798  -2.7761  -2.7761  -2.7575  -2.7111  -2.7111  -2.6718
    -2.6718  -2.6159  -2.6159  -2.6157  -2.6157  -2.6148  -2.6148  -2.6129
    -2.6129  -2.6119  -2.6119  -2.6117  -2.6117  -2.5566  -2.5563  -2.4831
    -2.4774  -2.4618  -2.4449  -2.4449  -2.4447  -2.4447  -2.4423  -2.4423
    -2.4293  -2.4293  -2.4291  -2.4291  -2.4274  -2.4274  -2.4166  -2.4166
    -2.4135  -2.4135  -2.3853  -2.3853  -2.3842  -2.3842  -2.3841  -2.3841
    -2.3068  -2.3068  -2.2997  -2.2997  -2.2996  -2.2996  -2.2953  -2.2953
    -2.2838  -2.2789  -2.2287  -2.2287  -2.2265  -2.2265  -2.2262  -2.2262
    -2.2207  -2.2207  -2.2204  -2.2204  -2.2199  -2.2199  -2.1824  -2.1824
    -2.1805  -2.1805  -2.1064  -2.1064  -2.1051  -2.1051  -2.1050  -2.1050
    -2.0205  -2.0194  -1.9524  -1.9524  -1.9475  -1.9475  -1.8585  -1.8585
    -1.8584  -1.8584  -1.8565  -1.8565  -1.8363  -1.8338  -0.5615  -0.5600
    -0.5493  -0.5493  -0.5411  -0.5411  -0.5392  -0.5392  -0.5391  -0.5391
    -0.4920  -0.4920  -0.4919  -0.4919  -0.4892  -0.4892  -0.4385  -0.4385
    -0.4385  -0.4384  -0.4349  -0.4349  -0.4345  -0.4345  -0.4314  -0.4314
    -0.3319  -0.3319  -0.3294  -0.3294  -0.3293  -0.3293  -0.1897  -0.1897
    -0.1597  -0.1560   0.3292   0.3292   0.3300   0.3300   0.3300   0.3300
     0.3310   0.3310   0.3355   0.3355   0.3641   0.3641   0.3641   0.3641
     0.3650   0.3650   0.4163   0.4180   0.4452   0.4822   0.4822   0.5239
     0.5541   0.5541   0.5556   0.5556   0.5559   0.5559   0.5559   0.5559
     0.6782   0.6782   0.6782   0.6782   0.6799   0.6799   0.7011   0.7011
     0.7011   0.7011   0.7013   0.7013   0.7393   0.7398   0.7398   0.7407
     0.7430   0.7430   0.7651   0.7651   0.7678   0.7678   0.7678   0.7678
     0.9710   0.9727   0.9755   0.9755   0.9755   0.9755   0.9778   0.9778
     0.9998   0.9998   1.0005   1.0005   1.0005   1.0005   1.0148   1.0148
     1.0793   1.0793   1.0794   1.0794   1.0809   1.0809   1.1183   1.1183
     1.1196   1.1196   1.1376   1.1376   1.1386   1.1386   1.1387   1.1387
     1.2136   1.2136   1.2615   1.2636

     the Fermi energy is    -1.2071 ev

!    total energy              =   -9215.21716376 Ry
     estimated scf accuracy    <       0.00000007 Ry
     smearing contrib. (-TS)   =      -0.00000057 Ry
     internal energy E=F+TS    =   -9215.21716319 Ry

     The total energy is F=E-TS. E is the sum of the following terms:
     one-electron contribution =  -48455.83480607 Ry
     hartree contribution      =   24302.22283270 Ry
     xc contribution           =   -1811.47701777 Ry
     ewald contribution        =   16757.18574672 Ry
     DFT-D3 Dispersion         =      -7.31391878 Ry

     total magnetization       =     0.00 Bohr mag/cell
     absolute magnetization    =   134.06 Bohr mag/cell

     convergence has been achieved in  19 iterations

     Forces acting on atoms (cartesian axes, Ry/au):

     atom    1 type  2   force =     0.00896681    0.00002336    0.02014922
     atom    2 type  2   force =    -0.00404720    0.00751082    0.01916005
     atom    3 type  2   force =    -0.00455418   -0.00743285    0.01888987
     atom    4 type  1   force =     0.00026676   -0.00016489    0.00011937
     atom    5 type  1   force =    -0.00072586    0.00041819    0.00011925
     atom    6 type  2   force =     0.00416036    0.00767070   -0.01829355
     atom    7 type  2   force =    -0.00851997   -0.00025043   -0.01855400
     atom    8 type  2   force =     0.00446352   -0.00778642   -0.01954746
     atom    9 type  4   force =     0.00895746    0.00002340    0.01954072
     atom   10 type  4   force =    -0.00404811    0.00752092    0.01856218
     atom   11 type  4   force =    -0.00455541   -0.00744298    0.01829232
     atom   12 type  3   force =     0.00026324   -0.00016004   -0.00011925
     atom   13 type  3   force =    -0.00071543    0.00041220   -0.00011885
     atom   14 type  4   force =     0.00415965    0.00766050   -0.01888963
     atom   15 type  4   force =    -0.00852936   -0.00025045   -0.01916030
     atom   16 type  4   force =     0.00446268   -0.00777625   -0.02014955
     atom   17 type  2   force =     0.00896697    0.00002346    0.02014952
     atom   18 type  2   force =    -0.00404725    0.00751066    0.01916045
     atom   19 type  2   force =    -0.00455443   -0.00743265    0.01888983
     atom   20 type  1   force =     0.00025370   -0.00014237    0.00011918
     atom   21 type  1   force =    -0.00073055    0.00043304    0.00011944
     atom   22 type  2   force =     0.00416042    0.00767077   -0.01829371
     atom   23 type  2   force =    -0.00851981   -0.00025046   -0.01855438
     atom   24 type  2   force =     0.00446350   -0.00778637   -0.01954774
     atom   25 type  4   force =     0.00895741    0.00002356    0.01954072
     atom   26 type  4   force =    -0.00404815    0.00752108    0.01856231
     atom   27 type  4   force =    -0.00455527   -0.00744304    0.01829216
     atom   28 type  3   force =     0.00027497   -0.00015194   -0.00011921
     atom   29 type  3   force =    -0.00072711    0.00043117   -0.00011917
     atom   30 type  4   force =     0.00415996    0.00766043   -0.01888948
     atom   31 type  4   force =    -0.00852956   -0.00025042   -0.01916019
     atom   32 type  4   force =     0.00446256   -0.00777649   -0.02014947
     atom   33 type  2   force =     0.00896678    0.00002341    0.02014953
     atom   34 type  2   force =    -0.00404728    0.00751074    0.01916023
     atom   35 type  2   force =    -0.00455436   -0.00743271    0.01889004
     atom   36 type  1   force =     0.00026168   -0.00015379    0.00011940
     atom   37 type  1   force =    -0.00071708    0.00041172    0.00011935
     atom   38 type  2   force =     0.00416057    0.00767079   -0.01829376
     atom   39 type  2   force =    -0.00851980   -0.00025034   -0.01855411
     atom   40 type  2   force =     0.00446359   -0.00778631   -0.01954787
     atom   41 type  4   force =     0.00895730    0.00002350    0.01954067
     atom   42 type  4   force =    -0.00404850    0.00752115    0.01856249
     atom   43 type  4   force =    -0.00455508   -0.00744312    0.01829225
     atom   44 type  3   force =     0.00026495   -0.00015360   -0.00011926
     atom   45 type  3   force =    -0.00071539    0.00041056   -0.00011923
     atom   46 type  4   force =     0.00415985    0.00766056   -0.01888974
     atom   47 type  4   force =    -0.00852945   -0.00025019   -0.01915998
     atom   48 type  4   force =     0.00446251   -0.00777630   -0.02014939
     atom   49 type  2   force =     0.00896675    0.00002337    0.02014939
     atom   50 type  2   force =    -0.00404697    0.00751096    0.01916036
     atom   51 type  2   force =    -0.00455414   -0.00743293    0.01888968
     atom   52 type  1   force =     0.00025414   -0.00016589    0.00011932
     atom   53 type  1   force =    -0.00072907    0.00040606    0.00011936
     atom   54 type  2   force =     0.00416025    0.00767092   -0.01829361
     atom   55 type  2   force =    -0.00851966   -0.00025058   -0.01855405
     atom   56 type  2   force =     0.00446339   -0.00778647   -0.01954780
     atom   57 type  4   force =     0.00895743    0.00002336    0.01954072
     atom   58 type  4   force =    -0.00404820    0.00752114    0.01856227
     atom   59 type  4   force =    -0.00455525   -0.00744304    0.01829222
     atom   60 type  3   force =     0.00027467   -0.00015516   -0.00011911
     atom   61 type  3   force =    -0.00072135    0.00040878   -0.00011899
     atom   62 type  4   force =     0.00415985    0.00766024   -0.01888981
     atom   63 type  4   force =    -0.00852942   -0.00025037   -0.01916027
     atom   64 type  4   force =     0.00446253   -0.00777642   -0.02014952
     atom   65 type  2   force =     0.00896689    0.00002320    0.02014954
     atom   66 type  2   force =    -0.00404728    0.00751088    0.01916047
     atom   67 type  2   force =    -0.00455442   -0.00743257    0.01888980
     atom   68 type  1   force =     0.00026034   -0.00015368    0.00011903
     atom   69 type  1   force =    -0.00073793    0.00042410    0.00011909
     atom   70 type  2   force =     0.00416057    0.00767076   -0.01829417
     atom   71 type  2   force =    -0.00851992   -0.00025040   -0.01855430
     atom   72 type  2   force =     0.00446388   -0.00778624   -0.01954764
     atom   73 type  4   force =     0.00895733    0.00002351    0.01954054
     atom   74 type  4   force =    -0.00404830    0.00752108    0.01856219
     atom   75 type  4   force =    -0.00455495   -0.00744301    0.01829207
     atom   76 type  3   force =     0.00027380   -0.00013904   -0.00011929
     atom   77 type  3   force =    -0.00072143    0.00042125   -0.00011896
     atom   78 type  4   force =     0.00415975    0.00766066   -0.01888993
     atom   79 type  4   force =    -0.00852926   -0.00025031   -0.01915993
     atom   80 type  4   force =     0.00446240   -0.00777633   -0.02014953
     atom   81 type  2   force =     0.00896681    0.00002329    0.02014942
     atom   82 type  2   force =    -0.00404725    0.00751072    0.01916023
     atom   83 type  2   force =    -0.00455406   -0.00743270    0.01888966
     atom   84 type  1   force =     0.00024666   -0.00015377    0.00011906
     atom   85 type  1   force =    -0.00074214    0.00041234    0.00011952
     atom   86 type  2   force =     0.00416042    0.00767055   -0.01829374
     atom   87 type  2   force =    -0.00851981   -0.00025045   -0.01855422
     atom   88 type  2   force =     0.00446347   -0.00778648   -0.01954786
     atom   89 type  4   force =     0.00895741    0.00002356    0.01954079
     atom   90 type  4   force =    -0.00404841    0.00752106    0.01856210
     atom   91 type  4   force =    -0.00455518   -0.00744270    0.01829223
     atom   92 type  3   force =     0.00028600   -0.00015373   -0.00011926
     atom   93 type  3   force =    -0.00073263    0.00041401   -0.00011898
     atom   94 type  4   force =     0.00415977    0.00766046   -0.01888966
     atom   95 type  4   force =    -0.00852937   -0.00025040   -0.01916027
     atom   96 type  4   force =     0.00446258   -0.00777639   -0.02014942
     atom   97 type  2   force =     0.00896671    0.00002356    0.02014943
     atom   98 type  2   force =    -0.00404742    0.00751082    0.01916052
     atom   99 type  2   force =    -0.00455419   -0.00743288    0.01888986
     atom  100 type  1   force =     0.00026049   -0.00015382    0.00011914
     atom  101 type  1   force =    -0.00073174    0.00042017    0.00011933
     atom  102 type  2   force =     0.00416044    0.00767075   -0.01829379
     atom  103 type  2   force =    -0.00851989   -0.00025023   -0.01855429
     atom  104 type  2   force =     0.00446371   -0.00778651   -0.01954764
     atom  105 type  4   force =     0.00895735    0.00002360    0.01954048
     atom  106 type  4   force =    -0.00404819    0.00752105    0.01856229
     atom  107 type  4   force =    -0.00455502   -0.00744278    0.01829219
     atom  108 type  3   force =     0.00027360   -0.00016849   -0.00011910
     atom  109 type  3   force =    -0.00071925    0.00042277   -0.00011886
     atom  110 type  4   force =     0.00415977    0.00766072   -0.01888963
     atom  111 type  4   force =    -0.00852926   -0.00025032   -0.01915991
     atom  112 type  4   force =     0.00446272   -0.00777612   -0.02014952
     atom  113 type  2   force =     0.00896686    0.00002335    0.02014918
     atom  114 type  2   force =    -0.00404726    0.00751074    0.01916050
     atom  115 type  2   force =    -0.00455436   -0.00743257    0.01888967
     atom  116 type  1   force =     0.00026740   -0.00014232    0.00011923
     atom  117 type  1   force =    -0.00071811    0.00042482    0.00011935
     atom  118 type  2   force =     0.00416026    0.00767071   -0.01829357
     atom  119 type  2   force =    -0.00851984   -0.00025057   -0.01855425
     atom  120 type  2   force =     0.00446350   -0.00778636   -0.01954772
     atom  121 type  4   force =     0.00895738    0.00002346    0.01954040
     atom  122 type  4   force =    -0.00404830    0.00752095    0.01856223
     atom  123 type  4   force =    -0.00455532   -0.00744296    0.01829210
     atom  124 type  3   force =     0.00026313   -0.00014665   -0.00011925
     atom  125 type  3   force =    -0.00070763    0.00042888   -0.00011890
     atom  126 type  4   force =     0.00415976    0.00766055   -0.01888950
     atom  127 type  4   force =    -0.00852928   -0.00025040   -0.01916028
     atom  128 type  4   force =     0.00446261   -0.00777629   -0.02014957
     atom  129 type  2   force =     0.00896675    0.00002323    0.02014932
     atom  130 type  2   force =    -0.00404746    0.00751079    0.01916042
     atom  131 type  2   force =    -0.00455416   -0.00743290    0.01888998
     atom  132 type  1   force =     0.00027350   -0.00015403    0.00011935
     atom  133 type  1   force =    -0.00072719    0.00041560    0.00011923
     atom  134 type  2   force =     0.00416039    0.00767052   -0.01829368
     atom  135 type  2   force =    -0.00851981   -0.00025048   -0.01855434
     atom  136 type  2   force =     0.00446358   -0.00778641   -0.01954766
     atom  137 type  4   force =     0.00895758    0.00002347    0.01954050
     atom  138 type  4   force =    -0.00404815    0.00752119    0.01856230
     atom  139 type  4   force =    -0.00455505   -0.00744312    0.01829211
     atom  140 type  3   force =     0.00026098   -0.00015387   -0.00011944
     atom  141 type  3   force =    -0.00070787    0.00041506   -0.00011906
     atom  142 type  4   force =     0.00415984    0.00766050   -0.01888950
     atom  143 type  4   force =    -0.00852932   -0.00025033   -0.01916000
     atom  144 type  4   force =     0.00446248   -0.00777635   -0.02014965

     Total force =     0.218416     Total SCF correction =     0.000371


     Computing stress (Cartesian axis) and pressure

          total   stress  (Ry/bohr**3)                   (kbar)     P=      -14.81
  -0.00011348  -0.00000050  -0.00000019          -16.69       -0.07       -0.03
  -0.00000050  -0.00011406  -0.00000033           -0.07      -16.78       -0.05
  -0.00000019  -0.00000033  -0.00007445           -0.03       -0.05      -10.95


     BFGS Geometry Optimization
     Energy error            =      1.4E-01 Ry
     Gradient error          =      2.0E-02 Ry/Bohr
     Cell gradient error     =      1.7E+01 kbar

     number of scf cycles    =   1
     number of bfgs steps    =   0

     enthalpy           new  =   -9215.2171637617 Ry

     new trust radius        =       0.1676821747 bohr
     new conv_thr            =       0.0000001000 Ry

     new unit-cell volume =  85963.46686 a.u.^3 ( 12738.47153 Ang^3 )
     density =      2.03199 g/cm^3

CELL_PARAMETERS (bohr)
  39.393864552  -0.000492792   0.000000000
 -19.697359046  34.115843268   0.000000000
   0.000000000   0.000000000  63.963520780

ATOMIC_POSITIONS (crystal)
I1               0.3042524550        0.1479697628        0.3129931112
I1               0.1852827797        0.2668893203        0.3131733666
I1               0.0667509160        0.0293455488        0.3132935826
Cr1              0.0742065528        0.2591263106        0.3590708163
Cr1              0.2964797179        0.0368535830        0.3590708143
I1               0.3039879414        0.2665827232        0.4048536502
I1               0.0664442172        0.1480505504        0.4049740185
I1               0.1853634408        0.0290806045        0.4051542067
I2               0.0820299990        0.1479697640        0.5948456878
I2               0.2963940143        0.2668896155        0.5950261095
I2               0.1778618470        0.0293452528        0.5951463304
Cr2              0.1853176444        0.2591264521        0.6409291757
Cr2              0.0742576644        0.0368534080        0.6409291819
I2               0.0817655543        0.2665824251        0.6867064212
I2               0.1775550893        0.1480505498        0.6868266295
I2               0.2964746780        0.0290809017        0.6870068838
I1               0.3042524605        0.4813031056        0.3129931159
I1               0.1852827761        0.6002226455        0.3131733727
I1               0.0667509126        0.3626788845        0.3132935819
Cr1              0.0742065510        0.5924602986        0.3590708132
Cr1              0.2964798164        0.3701873472        0.3590708173
I1               0.3039879440        0.5999160554        0.4048536478
I1               0.0664442208        0.4813838894        0.4049740125
I1               0.1853634409        0.3624139459        0.4051542024
I2               0.0820300000        0.4813031087        0.5948456878
I2               0.2963940157        0.6002229501        0.5950261116
I2               0.1778618495        0.3626785808        0.5951463279
Cr2              0.1853180597        0.5924600190        0.6409291763
Cr2              0.0742576462        0.3701872925        0.6409291769
I2               0.0817655611        0.5999157530        0.6867064235
I2               0.1775550845        0.4813838905        0.6868266312
I2               0.2964746717        0.3624142348        0.6870068849
I1               0.3042524550        0.8146364343        0.3129931159
I1               0.1852827765        0.9335559880        0.3131733693
I1               0.0667509135        0.6960122229        0.3132935852
Cr1              0.0742065863        0.9257932950        0.3590708166
Cr1              0.2964798458        0.7035200539        0.3590708159
I1               0.3039879479        0.9332493859        0.4048536470
I1               0.0664442227        0.8147172229        0.4049740167
I1               0.1853634442        0.6957472777        0.4051542003
I2               0.0820299964        0.8146364368        0.5948456871
I2               0.2963940080        0.9335562923        0.5950261144
I2               0.1778618531        0.6960119185        0.5951463293
Cr2              0.1853177818        0.9257933005        0.6409291755
Cr2              0.0742576417        0.7035200202        0.6409291760
I2               0.0817655603        0.9332490869        0.6867064195
I2               0.1775550907        0.8147172272        0.6868266346
I2               0.2964746730        0.6957475701        0.6870068862
I1               0.6375857836        0.1479697629        0.3129931137
I1               0.5186161176        0.2668893242        0.3131733713
I1               0.4000842459        0.0293455465        0.3132935795
Cr1              0.4075395485        0.2591262812        0.3590708155
Cr1              0.6298127896        0.0368532285        0.3590708160
I1               0.6373212819        0.2665827297        0.4048536494
I1               0.3997775629        0.1480505459        0.4049740176
I1               0.5186967668        0.0290806031        0.4051542014
I2               0.4153633276        0.1479697628        0.5948456878
I2               0.6297273453        0.2668896217        0.5950261109
I2               0.5111951799        0.0293452509        0.5951463289
Cr2              0.5186513350        0.2591265948        0.6409291778
Cr2              0.4075908047        0.0368533082        0.6409291797
I2               0.4150988855        0.2665824174        0.6867064184
I2               0.5108884289        0.1480505519        0.6868266301
I2               0.6298080018        0.0290808967        0.6870068842
I1               0.6375857847        0.4813030982        0.3129931161
I1               0.5186161085        0.6002226520        0.3131733732
I1               0.4000842441        0.3626788870        0.3132935815
Cr1              0.4075398840        0.5924599683        0.3590708109
Cr1              0.6298128289        0.3701870858        0.3590708118
I1               0.6373212874        0.5999160549        0.4048536405
I1               0.3997775588        0.4813838911        0.4049740137
I1               0.5186967826        0.3624139498        0.4051542039
I2               0.4153633275        0.4813031072        0.5948456851
I2               0.6297273418        0.6002229500        0.5950261096
I2               0.5111951881        0.3626785817        0.5951463267
Cr2              0.5186515486        0.5924603960        0.6409291750
Cr2              0.4075909850        0.3701870024        0.6409291802
I2               0.4150988891        0.5999157597        0.6867064166
I2               0.5108884337        0.4813838938        0.6868266353
I2               0.6298079999        0.3624142394        0.6870068840
I1               0.6375857841        0.8146364308        0.3129931143
I1               0.5186161072        0.9335559873        0.3131733694
I1               0.4000842511        0.6960122231        0.3132935793
Cr1              0.4075395365        0.9257932957        0.3590708114
Cr1              0.6298125506        0.7035200720        0.3590708185
I1               0.6373212805        0.9332493788        0.4048536472
I1               0.3997775608        0.8147172198        0.4049740150
I1               0.5186967685        0.6957472728        0.4051542005
I2               0.4153633301        0.8146364388        0.5948456890
I2               0.6297273387        0.9335562894        0.5950261082
I2               0.5111951869        0.6960119310        0.5951463290
Cr2              0.5186516426        0.9257932967        0.6409291755
Cr2              0.4075905955        0.7035201208        0.6409291799
I2               0.4150988868        0.9332490840        0.6867064207
I2               0.5108884297        0.8147172213        0.6868266301
I2               0.6298080035        0.6957475675        0.6870068858
I1               0.9709191255        0.1479697686        0.3129931145
I1               0.8519494441        0.2668893201        0.3131733739
I1               0.7334175753        0.0293455478        0.3132935823
Cr1              0.7408732158        0.2591266341        0.3590708127
Cr1              0.9631462582        0.0368536411        0.3590708157
I1               0.9706546142        0.2665827246        0.4048536465
I1               0.7331108920        0.1480505562        0.4049740138
I1               0.8520301142        0.0290806019        0.4051542040
I2               0.7486966591        0.1479697697        0.5948456841
I2               0.9630606842        0.2668896193        0.5950261113
I2               0.8445285197        0.0293452584        0.5951463284
Cr2              0.8519844432        0.2591262052        0.6409291779
Cr2              0.7409243925        0.0368537170        0.6409291817
I2               0.7484322305        0.2665824316        0.6867064212
I2               0.8442217635        0.1480505534        0.6868266357
I2               0.9631413511        0.0290809055        0.6870068842
I1               0.9709191262        0.4813031026        0.3129931104
I1               0.8519494471        0.6002226479        0.3131733735
I1               0.7334175755        0.3626788870        0.3132935795
Cr1              0.7408735588        0.5924603002        0.3590708141
[...]
   -12.9191 -12.9188 -12.8896 -12.8894  -5.9526  -5.9526  -5.9526  -5.9526
    -5.9525  -5.9525  -5.8032  -5.7008  -5.7008  -5.7008  -5.7008  -5.7007
    -5.7007  -5.5019  -5.4885  -5.4124  -5.4124  -5.4117  -5.4117  -5.3068
    -5.3067  -5.3060  -5.3060  -5.3060  -5.3060  -5.2273  -5.1575  -5.1575
    -5.1568  -5.1568  -5.0841  -5.0841  -5.0837  -5.0836  -5.0836  -5.0836
    -5.0632  -5.0632  -5.0455  -5.0455  -5.0448  -5.0448  -5.0448  -5.0448
    -5.0076  -5.0075  -5.0071  -5.0071  -5.0070  -5.0070  -4.9313  -4.9313
    -4.9313  -4.9313  -4.9310  -4.9310  -4.9147  -4.9128  -4.8704  -4.8685
    -4.8115  -4.8115  -4.8115  -4.8115  -4.8112  -4.8112  -4.8106  -4.8106
    -4.8104  -4.8104  -4.7784  -4.7784  -4.7111  -4.7111  -4.7111  -4.7111
    -4.7108  -4.7108  -4.7102  -4.7082  -4.6576  -4.6576  -4.6574  -4.6574
    -4.6203  -4.6180  -4.5342  -4.5342  -4.5342  -4.5342  -4.5338  -4.5338
    -4.4168  -4.4168  -4.3258  -4.3258  -4.3255  -4.3255  -4.3203  -4.2836
    -4.2596  -4.2388  -4.2388  -4.2388  -4.2388  -4.2386  -4.2386  -4.2155
    -4.2155  -4.2152  -4.2152  -4.2152  -4.2152  -4.2024  -4.2024  -4.0562
    -3.9397  -3.9397  -3.9396  -3.9396  -3.9395  -3.9395  -3.9182  -3.9182
    -3.9179  -3.9179  -3.8781  -3.8781  -3.8781  -3.8781  -3.8770  -3.8770
    -3.8566  -3.8566  -3.8566  -3.8566  -3.8565  -3.8565  -3.7984  -3.7984
    -3.7983  -3.7983  -3.7983  -3.7983  -3.7906  -3.7894  -3.7888  -3.7888
    -3.7658  -3.7658  -3.6472  -3.6472  -3.6472  -3.6472  -3.6468  -3.6468
    -3.5730  -3.5730  -3.4943  -3.4938  -3.4396  -3.4396  -3.4396  -3.4396
    -3.4387  -3.4387  -3.3522  -3.3522  -3.3522  -3.3522  -3.3518  -3.3518
    -3.3343  -3.2876  -3.2243  -3.2243  -3.2232  -3.2232  -3.2232  -3.2232
    -3.1902  -3.1889  -3.1575  -3.1575  -3.1569  -3.1569  -3.1567  -3.1566
    -3.1533  -3.1533  -3.1525  -3.1525  -3.1516  -3.1516  -3.1503  -3.1503
    -3.0798  -3.0798  -3.0789  -3.0789  -3.0789  -3.0789  -3.0634  -3.0627
    -3.0210  -3.0209  -3.0209  -3.0209  -3.0202  -3.0202  -2.9540  -2.9540
    -2.9523  -2.9523  -2.8601  -2.8601  -2.8166  -2.8166  -2.8165  -2.8165
    -2.8164  -2.8163  -2.7929  -2.7929  -2.7920  -2.7920  -2.7920  -2.7920
    -2.6897  -2.6897  -2.6892  -2.6892  -2.6692  -2.6692  -2.6674  -2.6674
    -2.6346  -2.6346  -2.6345  -2.6345  -2.6345  -2.6344  -2.6308  -2.6308
    -2.6300  -2.6300  -2.6298  -2.6298  -2.6068  -2.6068  -2.6064  -2.6064
    -2.6061  -2.6060  -2.4902  -2.4902  -2.4451  -2.4451  -2.4448  -2.4448
    -2.4448  -2.4448  -2.3494  -2.3494  -2.3411  -2.3165  -2.3164  -2.3003
    -2.2315  -2.2315  -2.2310  -2.2310  -2.2309  -2.2309  -2.2062  -2.2062
    -2.2057  -2.2057  -2.1638  -2.1638  -2.1083  -2.0573  -2.0573  -2.0567
    -2.0567  -2.0388  -2.0388  -2.0387  -2.0387  -2.0387  -2.0387  -1.8925
    -1.8925  -1.8924  -1.8924  -1.8923  -1.8923  -1.8864  -1.8864  -1.8861
    -1.8861  -1.8858  -1.8858  -1.8471  -1.8471  -1.8471  -1.8471  -1.8467
    -1.8467  -1.8057  -1.7411  -1.7411  -1.7083  -1.7083  -1.7083  -1.7083
    -1.7075  -1.7075  -1.7065  -1.7059  -1.6709  -1.6709  -1.6707  -1.6706
    -1.6706  -1.6706  -1.6589  -1.6589  -1.6441  -1.6441  -1.6436  -1.6436
    -1.6186  -1.6176  -1.5328  -1.5328  -1.5327  -1.5327  -1.5317  -1.5317
    -1.5218  -1.5208  -1.4900  -1.4900  -1.4890  -1.4890  -1.4889  -1.4889
    -1.3819  -1.3819  -1.3812  -1.3812  -1.3744  -1.3743  -1.3743  -1.3743
    -1.3743  -1.3743  -1.2880  -1.2880  -1.2879  -1.2879  -1.2878  -1.2878
    -1.1659  -1.1659  -1.1649  -1.1649  -0.9888  -0.9888  -0.9887  -0.9887
    -0.9887  -0.9887  -0.9149  -0.9144  -0.8444  -0.8442   0.3409   0.3409
     0.3416   0.3416   0.3417   0.3417   0.3624   0.3633   0.4613   0.4613
     0.4835   0.4835   0.4836   0.4836   0.4848   0.4848   0.5930   0.5931
     0.5931   0.5931   0.5934   0.5934   0.6361   0.6361   0.6367   0.6367
     0.6843   0.6843   0.6851   0.6852   0.6852   0.6853   0.8044   0.8044
     0.8059   0.8059   0.8381   0.8381   0.8473   0.8473   0.8473   0.8473
     0.8476   0.8476   0.8699   0.8699   0.9329   0.9329   0.9330   0.9330
     0.9330   0.9330   0.9348   0.9358   0.9731   0.9732   1.0765   1.1262
     1.2432   1.2432   1.2432   1.2432   1.2433   1.2433   1.3271   1.3271
     1.3343   1.3343   1.3344   1.3344   1.3347   1.3347   1.3840   1.3840
     1.3840   1.3840   1.3841   1.3841   1.4897   1.4903   1.5318   1.5318
     1.5321   1.5321   1.5421   1.5421   1.5426   1.5426   1.5426   1.5426
     1.6733   1.6733   1.6740   1.6740   1.6741   1.6741   1.7702   1.7707
     1.7859   1.7859   1.7860   1.7860   1.7867   1.7867   1.8969   1.8969
     1.9997   1.9997   2.0000   2.0000   2.0048   2.0048   2.0048   2.0048
     2.0049   2.0049   2.0594   2.0594   2.0598   2.0598   2.0598   2.0598
     2.1049   2.1049   2.1876   2.1883

     the Fermi energy is    -0.2745 ev

!    total energy              =   -9215.83860943 Ry
     estimated scf accuracy    <          8.1E-10 Ry
     smearing contrib. (-TS)   =      -0.00000090 Ry
     internal energy E=F+TS    =   -9215.83860853 Ry

     The total energy is F=E-TS. E is the sum of the following terms:
     one-electron contribution =  -54167.29169869 Ry
     hartree contribution      =   27187.45541146 Ry
     xc contribution           =   -1818.13987867 Ry
     ewald contribution        =   19590.81484868 Ry
     DFT-D3 Dispersion         =      -8.67729132 Ry

     total magnetization       =     0.00 Bohr mag/cell
     absolute magnetization    =   126.65 Bohr mag/cell

     convergence has been achieved in  21 iterations

     Forces acting on atoms (cartesian axes, Ry/au):

     atom    1 type  2   force =     0.00010520    0.00016144    0.00026835
     atom    2 type  2   force =     0.00011359   -0.00003698    0.00010009
     atom    3 type  2   force =    -0.00019246    0.00002531    0.00018105
     atom    4 type  1   force =    -0.00005163    0.00003398    0.00029373
     atom    5 type  1   force =     0.00014164   -0.00008107    0.00029400
     atom    6 type  2   force =    -0.00011916    0.00015546    0.00035348
     atom    7 type  2   force =     0.00008330   -0.00008115    0.00043643
     atom    8 type  2   force =    -0.00008888   -0.00017428    0.00026422
     atom    9 type  4   force =     0.00010998    0.00016169   -0.00026548
     atom   10 type  4   force =     0.00011467   -0.00003571   -0.00043423
     atom   11 type  4   force =    -0.00019067    0.00002420   -0.00035418
     atom   12 type  3   force =    -0.00006892    0.00003275   -0.00029355
     atom   13 type  3   force =     0.00016124   -0.00007488   -0.00029408
     atom   14 type  4   force =    -0.00011793    0.00015302   -0.00018142
     atom   15 type  4   force =     0.00008811   -0.00008078   -0.00009891
     atom   16 type  4   force =    -0.00008900   -0.00017081   -0.00026975
     atom   17 type  2   force =     0.00010508    0.00016283    0.00026831
     atom   18 type  2   force =     0.00011300   -0.00003742    0.00010013
     atom   19 type  2   force =    -0.00019153    0.00002507    0.00018106
     atom   20 type  1   force =    -0.00004480    0.00002213    0.00029369
     atom   21 type  1   force =     0.00014295   -0.00008848    0.00029375
     atom   22 type  2   force =    -0.00011849    0.00015422    0.00035432
     atom   23 type  2   force =     0.00008296   -0.00007990    0.00043573
     atom   24 type  2   force =    -0.00008945   -0.00017449    0.00026413
     atom   25 type  4   force =     0.00010993    0.00016310   -0.00026590
     atom   26 type  4   force =     0.00011458   -0.00003583   -0.00043530
     atom   27 type  4   force =    -0.00019152    0.00002346   -0.00035345
     atom   28 type  3   force =    -0.00007549    0.00002868   -0.00029364
     atom   29 type  3   force =     0.00016667   -0.00008472   -0.00029398
     atom   30 type  4   force =    -0.00011695    0.00015220   -0.00018083
     atom   31 type  4   force =     0.00008774   -0.00008009   -0.00009854
     atom   32 type  4   force =    -0.00008868   -0.00017150   -0.00027009
     atom   33 type  2   force =     0.00010587    0.00016151    0.00026921
     atom   34 type  2   force =     0.00011350   -0.00003725    0.00009979
     atom   35 type  2   force =    -0.00019236    0.00002595    0.00018036
     atom   36 type  1   force =    -0.00004803    0.00002823    0.00029355
     atom   37 type  1   force =     0.00013628   -0.00007723    0.00029372
     atom   38 type  2   force =    -0.00011947    0.00015485    0.00035434
     atom   39 type  2   force =     0.00008285   -0.00008106    0.00043591
     atom   40 type  2   force =    -0.00008870   -0.00017427    0.00026405
     atom   41 type  4   force =     0.00011029    0.00016202   -0.00026519
     atom   42 type  4   force =     0.00011403   -0.00003538   -0.00043465
     atom   43 type  4   force =    -0.00019100    0.00002321   -0.00035403
     atom   44 type  3   force =    -0.00007061    0.00003031   -0.00029362
     atom   45 type  3   force =     0.00016018   -0.00007365   -0.00029398
     atom   46 type  4   force =    -0.00011754    0.00015208   -0.00018053
     atom   47 type  4   force =     0.00008692   -0.00008052   -0.00009925
     atom   48 type  4   force =    -0.00008886   -0.00017120   -0.00026904
     atom   49 type  2   force =     0.00010511    0.00016168    0.00026939
     atom   50 type  2   force =     0.00011330   -0.00003813    0.00010000
     atom   51 type  2   force =    -0.00019189    0.00002640    0.00018043
     atom   52 type  1   force =    -0.00004408    0.00003426    0.00029374
     atom   53 type  1   force =     0.00014264   -0.00007427    0.00029391
     atom   54 type  2   force =    -0.00011930    0.00015463    0.00035328
     atom   55 type  2   force =     0.00008398   -0.00008108    0.00043640
     atom   56 type  2   force =    -0.00008982   -0.00017402    0.00026405
     atom   57 type  4   force =     0.00010936    0.00016202   -0.00026506
     atom   58 type  4   force =     0.00011502   -0.00003467   -0.00043405
     atom   59 type  4   force =    -0.00019111    0.00002321   -0.00035343
     atom   60 type  3   force =    -0.00007604    0.00003058   -0.00029367
     atom   61 type  3   force =     0.00016307   -0.00007251   -0.00029414
     atom   62 type  4   force =    -0.00011785    0.00015186   -0.00018135
     atom   63 type  4   force =     0.00008736   -0.00008095   -0.00009923
     atom   64 type  4   force =    -0.00008817   -0.00017072   -0.00026933
     atom   65 type  2   force =     0.00010563    0.00016288    0.00026917
     atom   66 type  2   force =     0.00011294   -0.00003815    0.00009926
     atom   67 type  2   force =    -0.00019213    0.00002513    0.00018126
     atom   68 type  1   force =    -0.00004804    0.00002823    0.00029375
     atom   69 type  1   force =     0.00014789   -0.00008396    0.00029392
     atom   70 type  2   force =    -0.00011863    0.00015503    0.00035342
     atom   71 type  2   force =     0.00008339   -0.00008004    0.00043648
     atom   72 type  2   force =    -0.00008994   -0.00017475    0.00026406
     atom   73 type  4   force =     0.00011004    0.00016293   -0.00026497
     atom   74 type  4   force =     0.00011509   -0.00003534   -0.00043466
     atom   75 type  4   force =    -0.00019111    0.00002371   -0.00035355
     atom   76 type  3   force =    -0.00007443    0.00002166   -0.00029356
     atom   77 type  3   force =     0.00016433   -0.00008003   -0.00029413
     atom   78 type  4   force =    -0.00011760    0.00015242   -0.00018129
     atom   79 type  4   force =     0.00008754   -0.00008004   -0.00009932
     atom   80 type  4   force =    -0.00008795   -0.00017092   -0.00027022
     atom   81 type  2   force =     0.00010565    0.00016236    0.00026911
     atom   82 type  2   force =     0.00011251   -0.00003791    0.00009999
     atom   83 type  2   force =    -0.00019144    0.00002546    0.00018040
     atom   84 type  1   force =    -0.00004097    0.00002854    0.00029373
     atom   85 type  1   force =     0.00014936   -0.00007752    0.00029375
     atom   86 type  2   force =    -0.00011817    0.00015452    0.00035360
     atom   87 type  2   force =     0.00008276   -0.00008047    0.00043559
     atom   88 type  2   force =    -0.00009017   -0.00017423    0.00026499
     atom   89 type  4   force =     0.00011027    0.00016252   -0.00026522
     atom   90 type  4   force =     0.00011528   -0.00003475   -0.00043506
     atom   91 type  4   force =    -0.00019211    0.00002346   -0.00035369
     atom   92 type  3   force =    -0.00008118    0.00002981   -0.00029353
     atom   93 type  3   force =     0.00016955   -0.00007568   -0.00029398
     atom   94 type  4   force =    -0.00011669    0.00015225   -0.00018137
     atom   95 type  4   force =     0.00008688   -0.00008116   -0.00009909
     atom   96 type  4   force =    -0.00008739   -0.00017103   -0.00026969
     atom   97 type  2   force =     0.00010455    0.00016186    0.00026842
     atom   98 type  2   force =     0.00011387   -0.00003764    0.00010027
     atom   99 type  2   force =    -0.00019160    0.00002567    0.00018118
     atom  100 type  1   force =    -0.00004812    0.00002828    0.00029383
     atom  101 type  1   force =     0.00014352   -0.00008141    0.00029391
     atom  102 type  2   force =    -0.00011890    0.00015435    0.00035348
     atom  103 type  2   force =     0.00008339   -0.00008110    0.00043539
     atom  104 type  2   force =    -0.00008963   -0.00017335    0.00026478
     atom  105 type  4   force =     0.00010924    0.00016194   -0.00026623
     atom  106 type  4   force =     0.00011461   -0.00003472   -0.00043438
     atom  107 type  4   force =    -0.00019165    0.00002359   -0.00035405
     atom  108 type  3   force =    -0.00007484    0.00003734   -0.00029357
     atom  109 type  3   force =     0.00016266   -0.00008048   -0.00029416
     atom  110 type  4   force =    -0.00011739    0.00015226   -0.00018125
     atom  111 type  4   force =     0.00008780   -0.00008098   -0.00009808
     atom  112 type  4   force =    -0.00008807   -0.00017176   -0.00027022
     atom  113 type  2   force =     0.00010501    0.00016244    0.00026915
     atom  114 type  2   force =     0.00011408   -0.00003817    0.00009934
     atom  115 type  2   force =    -0.00019217    0.00002596    0.00018134
     atom  116 type  1   force =    -0.00005112    0.00002187    0.00029368
     atom  117 type  1   force =     0.00013693   -0.00008436    0.00029397
     atom  118 type  2   force =    -0.00011954    0.00015418    0.00035424
     atom  119 type  2   force =     0.00008351   -0.00008042    0.00043567
     atom  120 type  2   force =    -0.00008915   -0.00017371    0.00026382
     atom  121 type  4   force =     0.00010945    0.00016271   -0.00026551
     atom  122 type  4   force =     0.00011389   -0.00003498   -0.00043443
     atom  123 type  4   force =    -0.00019067    0.00002265   -0.00035369
     atom  124 type  3   force =    -0.00006987    0.00002622   -0.00029361
     atom  125 type  3   force =     0.00015597   -0.00008333   -0.00029405
     atom  126 type  4   force =    -0.00011792    0.00015151   -0.00018030
     atom  127 type  4   force =     0.00008717   -0.00007956   -0.00009874
     atom  128 type  4   force =    -0.00008865   -0.00017204   -0.00026995
     atom  129 type  2   force =     0.00010579    0.00016175    0.00026907
     atom  130 type  2   force =     0.00011381   -0.00003757    0.00009930
     atom  131 type  2   force =    -0.00019289    0.00002542    0.00018122
     atom  132 type  1   force =    -0.00005485    0.00002865    0.00029367
     atom  133 type  1   force =     0.00014209   -0.00007998    0.00029391
     atom  134 type  2   force =    -0.00011893    0.00015519    0.00035366
     atom  135 type  2   force =     0.00008269   -0.00008118    0.00043566
     atom  136 type  2   force =    -0.00008883   -0.00017370    0.00026482
     atom  137 type  4   force =     0.00011041    0.00016171   -0.00026526
     atom  138 type  4   force =     0.00011407   -0.00003496   -0.00043430
     atom  139 type  4   force =    -0.00019097    0.00002376   -0.00035475
     atom  140 type  3   force =    -0.00006793    0.00002964   -0.00029341
     atom  141 type  3   force =     0.00015720   -0.00007660   -0.00029405
     atom  142 type  4   force =    -0.00011801    0.00015280   -0.00018080
     atom  143 type  4   force =     0.00008703   -0.00008046   -0.00009903
     atom  144 type  4   force =    -0.00008817   -0.00017153   -0.00026984

     Total force =     0.003993     Total SCF correction =     0.000069


     Computing stress (Cartesian axis) and pressure

          total   stress  (Ry/bohr**3)                   (kbar)     P=       -0.20
   0.00000023  -0.00000011  -0.00000010            0.03       -0.02       -0.01
  -0.00000011   0.00000010  -0.00000017           -0.02        0.01       -0.03
  -0.00000010  -0.00000017  -0.00000434           -0.01       -0.03       -0.64


     Writing all to output data dir ./CrI3-HT-afm.save/ :
     XML data file
     init_run     :     30.00s CPU     73.96s WALL (       2 calls)
     electrons    :   4648.61s CPU  11457.12s WALL (      20 calls)
     update_pot   :     22.23s CPU     38.68s WALL (      18 calls)
     forces       :     87.67s CPU    147.30s WALL (      20 calls)
     force_dftd3  :      3.17s CPU      5.10s WALL (      20 calls)
     stress       :    184.62s CPU    301.35s WALL (      20 calls)
     stres_dftd3  :      3.37s CPU      5.30s WALL (      20 calls)

     Called by init_run:
     wfcinit      :      7.25s CPU     25.88s WALL (       2 calls)
     potinit      :      0.87s CPU      1.98s WALL (       2 calls)
     hinit0       :     18.13s CPU     28.87s WALL (       2 calls)

     Called by electrons:
     c_bands      :   2954.63s CPU   8092.99s WALL (     273 calls)
     sum_band     :   1470.02s CPU   2926.20s WALL (     273 calls)
     v_of_rho     :     81.25s CPU    171.07s WALL (     284 calls)
     mix_rho      :    112.93s CPU    213.35s WALL (     273 calls)
     energy_dftd3 :      0.78s CPU      1.22s WALL (      20 calls)

     Called by c_bands:
     init_us_2    :     38.81s CPU     60.56s WALL (    1176 calls)
     regterg      :   2322.67s CPU   6947.50s WALL (     548 calls)

     Called by *egterg:
     rdiaghg      :     53.51s CPU    102.62s WALL (    2061 calls)
                                      102.59s GPU  (    2061 calls)
     h_psi        :   1877.94s CPU   6241.63s WALL (    2121 calls)
                                     6241.66s GPU  (    2121 calls)
     g_psi        :      0.01s CPU      6.21s WALL (    1569 calls)
                                        5.43s GPU  (    1569 calls)

     Called by h_psi:
     h_psi:calbec :    396.74s CPU    627.83s WALL (    2121 calls)
                                      627.79s GPU  (    2121 calls)
     vloc_psi     :   1329.74s CPU   5374.99s WALL (    2121 calls)
                                     5375.00s GPU  (    2121 calls)
     add_vuspsi   :      1.88s CPU    231.94s WALL (    2121 calls)
                                      230.44s GPU  (    2121 calls)

     General routines
     calbec       :    588.01s CPU    929.38s WALL (    2801 calls)
     fft          :     60.13s CPU    149.46s WALL (    4359 calls)
                                      148.86s GPU  (    4359 calls)
     ffts         :      3.66s CPU      9.13s WALL (     273 calls)
                                        9.09s GPU  (     273 calls)
     fftw         :   1941.14s CPU   7498.73s WALL (  274974 calls)
                                     7425.63s GPU  (  274974 calls)
 
     Parallel routines
 
     PWSCF        :      1h25m CPU      3h24m WALL

 
   This run was terminated on:   1:12:15   2Jul2025            

=------------------------------------------------------------------------------=
   JOB DONE.
=------------------------------------------------------------------------------=
