
     Program PWSCF v.7.3.1 starts on  2Jul2025 at  9:52: 8 
        Git branch: HEAD
        Last git commit: 7fd60c9bc9fe7a7d1fe6f1049f4afba0eab9aeef-dirty
        Last git commit date: Thu Feb 29 10:18:05 2024 +0000
        Last git commit subject: Merge branch 'master_qe_7.3.1' into 'master'

     This program is part of the open-source Quantum ESPRESSO suite
     for quantum simulation of materials; please cite
         "P. Giannozzi et al., J. Phys.:Condens. Matter 21 395502 (2009);
         "P. Giannozzi et al., J. Phys.:Condens. Matter 29 465901 (2017);
         "P. Giannozzi et al., J. Chem. Phys. 152 154105 (2020);
          URL http://www.quantum-espresso.org", 
     in publications or presentations arising from this work. More details at
     http://www.quantum-espresso.org/quote

     Parallel version (MPI & OpenMP), running on    1024 processor cores
     Number of MPI processes:                 4
     Threads/MPI process:                   256

     MPI processes distributed on     4 nodes
     489623 MiB available memory on the printing compute node when the environment starts

     Reading input from qe_Pt3Ni.in

     Current dimensions of program PWSCF are:
     Max number of different atomic species (ntypx) = 10
     Max number of k-points (npk) =  40000
     Max angular momentum in pseudopotentials (lmaxx) =  4

     gamma-point specific algorithms are used

     R & G space division:  proc/nbgrp/npool/nimage =       4
     Subspace diagonalization in iterative solution of the eigenvalue problem:
     a serial algorithm will be used


     Parallelization info
     --------------------
     sticks:   dense  smooth     PW     G-vecs:    dense   smooth      PW
     Min       51570   51570  12893             17617706 17617706 2202233
     Max       51572   51572  12896             17617716 17617716 2202244
     Sum      206285  206285  51577             70470853 70470853 8808945

     Using Slab Decomposition



     bravais-lattice index     =            1
     lattice parameter (alat)  =      60.0000  a.u.
     unit-cell volume          =  216000.0000 (a.u.)^3
     number of atoms/cell      =            4
     number of atomic types    =            2
     number of electrons       =        72.00
     number of Kohn-Sham states=           50
     kinetic-energy cutoff     =     180.0000  Ry
     charge density cutoff     =     720.0000  Ry
     scf convergence threshold =      1.0E-10
     mixing beta               =       0.1000
     number of iterations used =            8  plain     mixing
     Exchange-correlation= PBE
                           (   1   4   3   4   0   0   0)
     Hubbard projectors: atomic
     Hubbard parameters of DFT+U (Dudarev formulation) in eV:
     U(Ni-3d) =  1.0000
     U(Pt-5d) =  3.0000

     Internal variables: lda_plus_u =T, lda_plus_u_kind = 0

     celldm(1)=  60.000000  celldm(2)=   0.000000  celldm(3)=   0.000000
     celldm(4)=   0.000000  celldm(5)=   0.000000  celldm(6)=   0.000000

     crystal axes: (cart. coord. in units of alat)
               a(1) = (   1.000000   0.000000   0.000000 )  
               a(2) = (   0.000000   1.000000   0.000000 )  
               a(3) = (   0.000000   0.000000   1.000000 )  

     reciprocal axes: (cart. coord. in units 2 pi/alat)
               b(1) = (  1.000000  0.000000  0.000000 )  
               b(2) = (  0.000000  1.000000  0.000000 )  
               b(3) = (  0.000000  0.000000  1.000000 )  


     PseudoPot. # 1 for Ni read from file:
     ./Ni.upf
     MD5 check sum: 2b0a79d100e227970886d6963e34175b
     Pseudo is Norm-conserving + core correction, Zval = 18.0
     Generated using ONCVPSP code by D. R. Hamann
     Using radial grid of 1372 points,  6 beta functions with: 
                l(1) =   0
                l(2) =   0
                l(3) =   1
                l(4) =   1
                l(5) =   2
                l(6) =   2

     PseudoPot. # 2 for Pt read from file:
     ./Pt.upf
     MD5 check sum: 3caa314b32314335c676ebce8d0bd64e
     Pseudo is Norm-conserving + core correction, Zval = 18.0
     Generated using ONCVPSP code by D. R. Hamann
     Using radial grid of 1374 points,  8 beta functions with: 
                l(1) =   0
                l(2) =   0
                l(3) =   1
                l(4) =   1
                l(5) =   2
                l(6) =   2
                l(7) =   3
                l(8) =   3

     atomic species   valence    mass     pseudopotential
     Ni               18.00    58.00000     Ni( 1.00)
     Pt               18.00   195.00000     Pt( 1.00)

     Starting magnetic structure 
     atomic species   magnetization
     Ni              0.200
     Pt              0.200

      6 Sym. Ops. (no inversion) found


                                    s                        frac. trans.

      isym =  1     identity                                     

 cryst.   s( 1) = (     1          0          0      )
                  (     0          1          0      )
                  (     0          0          1      )

 cart.    s( 1) = (  1.0000000  0.0000000  0.0000000 )
                  (  0.0000000  1.0000000  0.0000000 )
                  (  0.0000000  0.0000000  1.0000000 )


      isym =  2     120 deg rotation - cart. axis [-1,-1,-1]     

 cryst.   s( 2) = (     0          0          1      )
                  (     1          0          0      )
                  (     0          1          0      )

 cart.    s( 2) = (  0.0000000  1.0000000  0.0000000 )
                  (  0.0000000  0.0000000  1.0000000 )
                  (  1.0000000  0.0000000  0.0000000 )


      isym =  3     120 deg rotation - cart. axis [1,1,1]        

 cryst.   s( 3) = (     0          1          0      )
                  (     0          0          1      )
                  (     1          0          0      )

 cart.    s( 3) = (  0.0000000  0.0000000  1.0000000 )
                  (  1.0000000  0.0000000  0.0000000 )
                  (  0.0000000  1.0000000  0.0000000 )


      isym =  4     inv. 180 deg rotation - cart. axis [1,-1,0]  

 cryst.   s( 4) = (     0          1          0      )
                  (     1          0          0      )
                  (     0          0          1      )

 cart.    s( 4) = (  0.0000000  1.0000000  0.0000000 )
                  (  1.0000000  0.0000000  0.0000000 )
                  (  0.0000000  0.0000000  1.0000000 )


      isym =  5     inv. 180 deg rotation - cart. axis [-1,0,1]  

 cryst.   s( 5) = (     0          0          1      )
                  (     0          1          0      )
                  (     1          0          0      )

 cart.    s( 5) = (  0.0000000  0.0000000  1.0000000 )
                  (  0.0000000  1.0000000  0.0000000 )
                  (  1.0000000  0.0000000  0.0000000 )


      isym =  6     inv. 180 deg rotation - cart. axis [0,1,-1]  

 cryst.   s( 6) = (     1          0          0      )
                  (     0          0          1      )
                  (     0          1          0      )

 cart.    s( 6) = (  1.0000000  0.0000000  0.0000000 )
                  (  0.0000000  0.0000000  1.0000000 )
                  (  0.0000000  1.0000000  0.0000000 )


     point group C_3v (3m)  
     there are  3 classes
     the character table:

       E     2C3   3s_v 
A_1    1.00  1.00  1.00
A_2    1.00  1.00 -1.00
E      2.00 -1.00  0.00

     the symmetry operations in each class and the name of the first element:

     E        1
          identity                                               
     2C3      2    3
          120 deg rotation - cart. axis [-1,-1,-1]               
     3s_v     4    5    6
          inv. 180 deg rotation - cart. axis [1,-1,0]            

   Cartesian axes

     site n.     atom                  positions (alat units)
         1        Ni     tau(   1) = (   0.0000000   0.0000000   0.0000000  )
         2        Pt     tau(   2) = (   0.0600000   0.0600000   0.0000000  )
         3        Pt     tau(   3) = (   0.0000000   0.0600000   0.0600000  )
         4        Pt     tau(   4) = (   0.0600000   0.0000000   0.0600000  )

   Crystallographic axes

     site n.     atom                  positions (cryst. coord.)
         1        Ni     tau(   1) = (  0.0000000  0.0000000  0.0000000  )
         2        Pt     tau(   2) = (  0.0600000  0.0600000  0.0000000  )
         3        Pt     tau(   3) = (  0.0000000  0.0600000  0.0600000  )
         4        Pt     tau(   4) = (  0.0600000  0.0000000  0.0600000  )

     number of k points=     1  Fermi-Dirac smearing, width (Ry)=  0.0127
                       cart. coord. in units 2pi/alat
        k(    1) = (   0.0000000   0.0000000   0.0000000), wk =   1.0000000

                       cryst. coord.
        k(    1) = (   0.0000000   0.0000000   0.0000000), wk =   1.0000000

     Dense  grid: 35235427 G-vectors     FFT dimensions: ( 540, 540, 540)

     Dynamical RAM for                 wfc:     840.06 MB

     Dynamical RAM for     wfc (w. buffer):    2520.19 MB

     Dynamical RAM for             U proj.:     336.02 MB

     Dynamical RAM for  U proj. (w. buff.):    1008.07 MB

     Dynamical RAM for           str. fact:     268.83 MB

     Dynamical RAM for           local pot:       0.00 MB

     Dynamical RAM for          nlocal pot:    1915.34 MB

     Dynamical RAM for                qrad:      10.33 MB

     Dynamical RAM for          rho,v,vnew:   -1487.49 MB

     Dynamical RAM for               rhoin:     869.50 MB

     Dynamical RAM for            rho*nmix:     205.20 MB

     Dynamical RAM for           G-vectors:     571.25 MB

     Dynamical RAM for          h,s,v(r/c):       0.23 MB

     Dynamical RAM for          <psi|beta>:       0.04 MB

     Dynamical RAM for                 psi:    1680.12 MB

     Dynamical RAM for                hpsi:    1680.12 MB

     Dynamical RAM for      wfcinit/wfcrot:    1680.18 MB

     Estimated static dynamical RAM per process >       7.70 GB

     Estimated max dynamical RAM per process >      11.18 GB

     Estimated total dynamical RAM >      44.71 GB
     Generating pointlists ...
     new r_m :   0.0350 (alat units)  2.1001 (a.u.) for type    1
     new r_m :   0.0350 (alat units)  2.1001 (a.u.) for type    2

     Initial potential from superposition of free atoms

     starting charge      71.9993, renormalised to      72.0000

     negative rho (up, down):  1.027E-04 6.848E-05

     HUBBARD ENERGY =    0.3087  (Ry)

     STARTING HUBBARD OCCUPATIONS:

     =================== HUBBARD OCCUPATIONS ===================
     ------------------------ ATOM    1 ------------------------
     Tr[ns(  1)] (up, down, total) =   5.00000  3.00000  8.00000
     Atomic magnetic moment for atom   1 =   2.00000
     SPIN  1
     eigenvalues:
       1.000  1.000  1.000  1.000  1.000
     eigenvectors (columns):
       1.000  0.000  0.000  0.000  0.000
       0.000  1.000  0.000  0.000  0.000
       0.000  0.000  1.000  0.000  0.000
       0.000  0.000  0.000  1.000  0.000
       0.000  0.000  0.000  0.000  1.000
     occupation matrix ns (before diag.):
       1.000  0.000  0.000  0.000  0.000
       0.000  1.000  0.000  0.000  0.000
       0.000  0.000  1.000  0.000  0.000
       0.000  0.000  0.000  1.000  0.000
       0.000  0.000  0.000  0.000  1.000
     SPIN  2
     eigenvalues:
       0.600  0.600  0.600  0.600  0.600
     eigenvectors (columns):
       1.000  0.000  0.000  0.000  0.000
       0.000  1.000  0.000  0.000  0.000
       0.000  0.000  1.000  0.000  0.000
       0.000  0.000  0.000  1.000  0.000
       0.000  0.000  0.000  0.000  1.000
     occupation matrix ns (before diag.):
       0.600  0.000  0.000  0.000  0.000
       0.000  0.600  0.000  0.000  0.000
       0.000  0.000  0.600  0.000  0.000
       0.000  0.000  0.000  0.600  0.000
       0.000  0.000  0.000  0.000  0.600
     ------------------------ ATOM    2 ------------------------
     Tr[ns(  2)] (up, down, total) =   5.00000  4.00000  9.00000
     Atomic magnetic moment for atom   2 =   1.00000
     SPIN  1
     eigenvalues:
       1.000  1.000  1.000  1.000  1.000
     eigenvectors (columns):
       1.000  0.000  0.000  0.000  0.000
       0.000  1.000  0.000  0.000  0.000
       0.000  0.000  1.000  0.000  0.000
       0.000  0.000  0.000  1.000  0.000
       0.000  0.000  0.000  0.000  1.000
     occupation matrix ns (before diag.):
       1.000  0.000  0.000  0.000  0.000
       0.000  1.000  0.000  0.000  0.000
       0.000  0.000  1.000  0.000  0.000
       0.000  0.000  0.000  1.000  0.000
       0.000  0.000  0.000  0.000  1.000
     SPIN  2
     eigenvalues:
       0.800  0.800  0.800  0.800  0.800
     eigenvectors (columns):
       1.000  0.000  0.000  0.000  0.000
       0.000  1.000  0.000  0.000  0.000
       0.000  0.000  1.000  0.000  0.000
       0.000  0.000  0.000  1.000  0.000
       0.000  0.000  0.000  0.000  1.000
     occupation matrix ns (before diag.):
       0.800  0.000  0.000  0.000  0.000
       0.000  0.800  0.000  0.000  0.000
       0.000  0.000  0.800  0.000  0.000
       0.000  0.000  0.000  0.800  0.000
       0.000  0.000  0.000  0.000  0.800
     ------------------------ ATOM    3 ------------------------
     Tr[ns(  3)] (up, down, total) =   5.00000  4.00000  9.00000
     Atomic magnetic moment for atom   3 =   1.00000
     SPIN  1
     eigenvalues:
       1.000  1.000  1.000  1.000  1.000
     eigenvectors (columns):
       1.000  0.000  0.000  0.000  0.000
       0.000  1.000  0.000  0.000  0.000
       0.000  0.000  1.000  0.000  0.000
       0.000  0.000  0.000  1.000  0.000
       0.000  0.000  0.000  0.000  1.000
     occupation matrix ns (before diag.):
       1.000  0.000  0.000  0.000  0.000
       0.000  1.000  0.000  0.000  0.000
       0.000  0.000  1.000  0.000  0.000
       0.000  0.000  0.000  1.000  0.000
       0.000  0.000  0.000  0.000  1.000
     SPIN  2
     eigenvalues:
       0.800  0.800  0.800  0.800  0.800
     eigenvectors (columns):
       1.000  0.000  0.000  0.000  0.000
       0.000  1.000  0.000  0.000  0.000
       0.000  0.000  1.000  0.000  0.000
       0.000  0.000  0.000  1.000  0.000
       0.000  0.000  0.000  0.000  1.000
     occupation matrix ns (before diag.):
       0.800  0.000  0.000  0.000  0.000
       0.000  0.800  0.000  0.000  0.000
       0.000  0.000  0.800  0.000  0.000
       0.000  0.000  0.000  0.800  0.000
       0.000  0.000  0.000  0.000  0.800
     ------------------------ ATOM    4 ------------------------
     Tr[ns(  4)] (up, down, total) =   5.00000  4.00000  9.00000
     Atomic magnetic moment for atom   4 =   1.00000
     SPIN  1
     eigenvalues:
       1.000  1.000  1.000  1.000  1.000
     eigenvectors (columns):
       1.000  0.000  0.000  0.000  0.000
       0.000  1.000  0.000  0.000  0.000
       0.000  0.000  1.000  0.000  0.000
       0.000  0.000  0.000  1.000  0.000
       0.000  0.000  0.000  0.000  1.000
     occupation matrix ns (before diag.):
       1.000  0.000  0.000  0.000  0.000
       0.000  1.000  0.000  0.000  0.000
       0.000  0.000  1.000  0.000  0.000
       0.000  0.000  0.000  1.000  0.000
       0.000  0.000  0.000  0.000  1.000
     SPIN  2
     eigenvalues:
       0.800  0.800  0.800  0.800  0.800
     eigenvectors (columns):
       1.000  0.000  0.000  0.000  0.000
       0.000  1.000  0.000  0.000  0.000
       0.000  0.000  1.000  0.000  0.000
       0.000  0.000  0.000  1.000  0.000
       0.000  0.000  0.000  0.000  1.000
     occupation matrix ns (before diag.):
       0.800  0.000  0.000  0.000  0.000
       0.000  0.800  0.000  0.000  0.000
       0.000  0.000  0.800  0.000  0.000
       0.000  0.000  0.000  0.800  0.000
       0.000  0.000  0.000  0.000  0.800

     Number of occupied Hubbard levels =   35.0000

     Atomic wfc used for Hubbard projectors are NOT orthogonalized

     Starting wfcs are random

     total cpu time spent up to now is       71.9 secs

     Self-consistent Calculation

     iteration #  1     ecut=   180.00 Ry     beta= 0.10
     Davidson diagonalization with overlap

---- Real-time Memory Report at c_bands before calling an iterative solver
         13053 MiB given to the printing process from OS
           327 MiB allocation reported by mallinfo(arena+hblkhd)
        478241 MiB available memory on the node where the printing process lives
------------------
     ethr =  1.00E-02,  avg # of iterations = 25.0

     =================== HUBBARD OCCUPATIONS ===================
     ------------------------ ATOM    1 ------------------------
     Tr[ns(  1)] (up, down, total) =   3.90782  2.84332  6.75113
     Atomic magnetic moment for atom   1 =   1.06450
     SPIN  1
     eigenvalues:
       0.500  0.500  0.955  0.955  0.998
     eigenvectors (columns):
       0.101 -0.987 -0.125  0.007  0.000
      -0.083 -0.060  0.364 -0.724 -0.577
       0.093 -0.042  0.444  0.677 -0.577
      -0.987 -0.101  0.007  0.125 -0.000
       0.010 -0.102  0.809 -0.046  0.577
     occupation matrix ns (before diag.):
       0.507 -0.023 -0.023  0.000 -0.046
      -0.023  0.964  0.017 -0.040 -0.017
      -0.023  0.017  0.964  0.040 -0.017
       0.000 -0.040  0.040  0.507 -0.000
      -0.046 -0.017 -0.017 -0.000  0.964
     SPIN  2
     eigenvalues:
       0.149  0.149  0.789  0.789  0.968
     eigenvectors (columns):
      -0.254 -0.848  0.434  0.170  0.000
      -0.370 -0.088 -0.108 -0.714 -0.577
       0.261 -0.277 -0.565  0.451 -0.577
      -0.848  0.254 -0.170  0.434 -0.000
      -0.109 -0.364 -0.673 -0.263  0.577
     occupation matrix ns (before diag.):
       0.288 -0.108 -0.108  0.000 -0.215
      -0.108  0.756  0.106 -0.186 -0.106
      -0.108  0.106  0.756  0.186 -0.106
       0.000 -0.186  0.186  0.288 -0.000
      -0.215 -0.106 -0.106 -0.000  0.756
     ------------------------ ATOM    2 ------------------------
     Tr[ns(  2)] (up, down, total) =   4.70266  4.05680  8.75946
     Atomic magnetic moment for atom   2 =   0.64586
     SPIN  1
     eigenvalues:
       0.766  0.964  0.989  0.989  0.995
     eigenvectors (columns):
       0.000  0.979 -0.000 -0.171  0.112
       0.371  0.045  0.602 -0.186 -0.681
      -0.371  0.045 -0.602 -0.186 -0.681
      -0.851  0.000  0.524 -0.000 -0.000
      -0.000  0.194  0.000  0.949 -0.247
     occupation matrix ns (before diag.):
       0.965 -0.002 -0.002  0.000 -0.005
      -0.002  0.961  0.033  0.071  0.001
      -0.002  0.033  0.961 -0.071  0.001
       0.000  0.071 -0.071  0.827 -0.000
      -0.005  0.001  0.001 -0.000  0.989
     SPIN  2
     eigenvalues:
       0.676  0.709  0.805  0.902  0.965
     eigenvectors (columns):
      -0.000  0.000  0.474  0.851  0.225
      -0.536 -0.461  0.017 -0.189  0.681
       0.536  0.461  0.017 -0.189  0.681
       0.652 -0.758  0.000 -0.000  0.000
       0.000 -0.000 -0.880  0.452  0.147
     occupation matrix ns (before diag.):
       0.883  0.009  0.009  0.000  0.042
       0.009  0.825  0.135  0.012  0.008
       0.009  0.135  0.825 -0.012  0.008
       0.000  0.012 -0.012  0.695 -0.000
       0.042  0.008  0.008 -0.000  0.829
     ------------------------ ATOM    3 ------------------------
     Tr[ns(  3)] (up, down, total) =   4.70266  4.05680  8.75946
     Atomic magnetic moment for atom   3 =   0.64586
     SPIN  1
     eigenvalues:
       0.766  0.964  0.989  0.989  0.995
     eigenvectors (columns):
       0.737 -0.489 -0.454 -0.085 -0.056
      -0.371  0.045 -0.602  0.186 -0.681
      -0.000 -0.194  0.000  0.949  0.247
       0.426  0.848 -0.262  0.148  0.097
      -0.371 -0.045 -0.602 -0.186  0.681
     occupation matrix ns (before diag.):
       0.862  0.062 -0.003 -0.060  0.060
       0.062  0.961 -0.001  0.034 -0.033
      -0.003 -0.001  0.989  0.004  0.001
      -0.060  0.034  0.004  0.930  0.037
       0.060 -0.033  0.001  0.037  0.961
     SPIN  2
     eigenvalues:
       0.676  0.709  0.805  0.902  0.965
     eigenvectors (columns):
       0.565 -0.657 -0.237  0.426 -0.112
      -0.536 -0.461  0.017  0.189  0.681
      -0.000  0.000  0.880  0.452 -0.147
       0.326 -0.379  0.411 -0.737  0.195
      -0.536 -0.461 -0.017 -0.189 -0.681
     occupation matrix ns (before diag.):
       0.742  0.006  0.021 -0.082  0.014
       0.006  0.825 -0.008  0.013 -0.135
       0.021 -0.008  0.829 -0.037  0.008
      -0.082  0.013 -0.037  0.836 -0.002
       0.014 -0.135  0.008 -0.002  0.825
     ------------------------ ATOM    4 ------------------------
     Tr[ns(  4)] (up, down, total) =   4.70266  4.05680  8.75946
     Atomic magnetic moment for atom   4 =   0.64586
     SPIN  1
     eigenvalues:
       0.766  0.964  0.989  0.989  0.995
     eigenvectors (columns):
      -0.737  0.489  0.454  0.085 -0.056
      -0.000  0.194  0.000 -0.949  0.247
       0.371 -0.045  0.602 -0.186 -0.681
       0.426  0.848 -0.262  0.148 -0.097
       0.371  0.045  0.602  0.186  0.681
     occupation matrix ns (before diag.):
       0.862 -0.003  0.062  0.060  0.060
      -0.003  0.989 -0.001 -0.004  0.001
       0.062 -0.001  0.961 -0.034 -0.033
       0.060 -0.004 -0.034  0.930 -0.037
       0.060  0.001 -0.033 -0.037  0.961
     SPIN  2
     eigenvalues:
       0.676  0.709  0.805  0.902  0.965
     eigenvectors (columns):
      -0.565  0.657  0.237 -0.426 -0.112
      -0.000  0.000 -0.880 -0.452 -0.147
       0.536  0.461 -0.017 -0.189  0.681
       0.326 -0.379  0.411 -0.737 -0.195
       0.536  0.461  0.017  0.189 -0.681
     occupation matrix ns (before diag.):
       0.742  0.021  0.006  0.082  0.014
       0.021  0.829 -0.008  0.037  0.008
       0.006 -0.008  0.825 -0.013 -0.135
       0.082  0.037 -0.013  0.836  0.002
       0.014  0.008 -0.135  0.002  0.825

     Number of occupied Hubbard levels =   33.0295

     negative rho (up, down):  4.892E-05 6.246E-06

     HUBBARD ENERGY =    0.3571  (Ry)

     total cpu time spent up to now is      576.2 secs

     total energy              =   -1116.55217964 Ry
     estimated scf accuracy    <       2.12232021 Ry

     total magnetization       =     3.99 Bohr mag/cell
     absolute magnetization    =     4.20 Bohr mag/cell

     iteration #  2     ecut=   180.00 Ry     beta= 0.10
     Davidson diagonalization with overlap

---- Real-time Memory Report at c_bands before calling an iterative solver
         21399 MiB given to the printing process from OS
           865 MiB allocation reported by mallinfo(arena+hblkhd)
        478164 MiB available memory on the node where the printing process lives
------------------
     ethr =  2.95E-03,  avg # of iterations = 10.0

     =================== HUBBARD OCCUPATIONS ===================
     ------------------------ ATOM    1 ------------------------
     Tr[ns(  1)] (up, down, total) =   4.99178  4.99250  9.98428
     Atomic magnetic moment for atom   1 =  -0.00072
     SPIN  1
     eigenvalues:
       0.998  0.998  0.998  0.998  0.999
     eigenvectors (columns):
       0.365 -0.722  0.512 -0.288  0.000
       0.479 -0.026 -0.007  0.661 -0.577
      -0.262 -0.402 -0.569 -0.337 -0.577
       0.722  0.365 -0.288 -0.512 -0.000
       0.217 -0.428 -0.576  0.324  0.577
     occupation matrix ns (before diag.):
       0.998 -0.000 -0.000  0.000 -0.000
      -0.000  0.998  0.000 -0.000 -0.000
      -0.000  0.000  0.998  0.000 -0.000
       0.000 -0.000  0.000  0.998 -0.000
      -0.000 -0.000 -0.000 -0.000  0.998
     SPIN  2
     eigenvalues:
       0.997  0.997  0.999  1.000  1.000
     eigenvectors (columns):
      -0.410 -0.149 -0.000 -0.256 -0.862
       0.128  0.723  0.577 -0.347 -0.083
       0.562 -0.473  0.577  0.245 -0.259
       0.149 -0.410 -0.000 -0.862  0.256
       0.690  0.251 -0.577 -0.101 -0.342
     occupation matrix ns (before diag.):
       0.999  0.000  0.000  0.000  0.001
       0.000  0.998  0.000  0.001 -0.000
       0.000  0.000  0.998 -0.001 -0.000
       0.000  0.001 -0.001  0.999 -0.000
       0.001 -0.000 -0.000 -0.000  0.998
     ------------------------ ATOM    2 ------------------------
     Tr[ns(  2)] (up, down, total) =   4.91599  4.14445  9.06044
     Atomic magnetic moment for atom   2 =   0.77154
     SPIN  1
     eigenvalues:
       0.962  0.969  0.990  0.997  0.998
     eigenvectors (columns):
      -0.502 -0.000  0.236  0.000 -0.832
      -0.525 -0.475 -0.431 -0.524  0.195
      -0.525  0.475 -0.431  0.524  0.195
       0.000 -0.741 -0.000  0.671  0.000
       0.442  0.000 -0.757 -0.000 -0.481
     occupation matrix ns (before diag.):
       0.988 -0.009 -0.009  0.000  0.009
      -0.009  0.980 -0.005 -0.010  0.006
      -0.009 -0.005  0.980  0.010  0.006
       0.000 -0.010  0.010  0.982 -0.000
       0.009  0.006  0.006 -0.000  0.987
     SPIN  2
     eigenvalues:
       0.647  0.743  0.849  0.937  0.968
     eigenvectors (columns):
       0.000 -0.000  0.763 -0.047 -0.645
      -0.571 -0.417  0.051 -0.696  0.111
       0.571  0.417  0.051 -0.696  0.111
      -0.590  0.808  0.000 -0.000  0.000
      -0.000  0.000 -0.643 -0.167 -0.748
     occupation matrix ns (before diag.):
       0.899 -0.006 -0.006  0.000  0.058
      -0.006  0.809  0.128 -0.032  0.000
      -0.006  0.128  0.809  0.032  0.000
       0.000 -0.032  0.032  0.710 -0.000
       0.058  0.000  0.000 -0.000  0.918
     ------------------------ ATOM    3 ------------------------
     Tr[ns(  3)] (up, down, total) =   4.91599  4.14445  9.06044
     Atomic magnetic moment for atom   3 =   0.77154
     SPIN  1
     eigenvalues:
       0.962  0.969  0.990  0.997  0.998
     eigenvectors (columns):
      -0.251 -0.642 -0.118  0.581  0.416
       0.525 -0.475 -0.431 -0.524  0.195
       0.442  0.000  0.757  0.000  0.481
       0.435 -0.371  0.204  0.336 -0.721
      -0.525 -0.475  0.431 -0.524 -0.195
     occupation matrix ns (before diag.):
       0.983 -0.004  0.005 -0.003 -0.013
      -0.004  0.980 -0.006 -0.013  0.005
       0.005 -0.006  0.987 -0.008  0.006
      -0.003 -0.013 -0.008  0.987  0.003
      -0.013  0.005  0.006  0.003  0.980
     SPIN  2
     eigenvalues:
       0.647  0.743  0.849  0.937  0.968
     eigenvectors (columns):
       0.511 -0.699 -0.381  0.024 -0.323
       0.571  0.417  0.051 -0.696 -0.111
      -0.000  0.000  0.643  0.167 -0.748
       0.295 -0.404  0.660 -0.041  0.559
       0.571  0.417 -0.051  0.696  0.111
     occupation matrix ns (before diag.):
       0.757 -0.025  0.029 -0.082 -0.031
      -0.025  0.809 -0.000 -0.021 -0.128
       0.029 -0.000  0.918 -0.050  0.000
      -0.082 -0.021 -0.050  0.851 -0.011
      -0.031 -0.128  0.000 -0.011  0.809
     ------------------------ ATOM    4 ------------------------
     Tr[ns(  4)] (up, down, total) =   4.91599  4.14445  9.06044
     Atomic magnetic moment for atom   4 =   0.77154
     SPIN  1
     eigenvalues:
       0.962  0.969  0.990  0.997  0.998
     eigenvectors (columns):
       0.251  0.642  0.118  0.581 -0.416
      -0.442 -0.000 -0.757  0.000 -0.481
      -0.525  0.475  0.431 -0.524 -0.195
       0.435 -0.371  0.204 -0.336 -0.721
       0.525  0.475 -0.431 -0.524  0.195
     occupation matrix ns (before diag.):
       0.983  0.005 -0.004  0.003 -0.013
       0.005  0.987 -0.006  0.008  0.006
      -0.004 -0.006  0.980  0.013  0.005
       0.003  0.008  0.013  0.987 -0.003
      -0.013  0.006  0.005 -0.003  0.980
     SPIN  2
     eigenvalues:
       0.647  0.743  0.849  0.937  0.968
     eigenvectors (columns):
      -0.511  0.699  0.381  0.024  0.323
      -0.000  0.000 -0.643  0.167  0.748
      -0.571 -0.417 -0.051 -0.696  0.111
       0.295 -0.404  0.660  0.041  0.559
      -0.571 -0.417  0.051  0.696 -0.111
     occupation matrix ns (before diag.):
       0.757  0.029 -0.025  0.082 -0.031
       0.029  0.918 -0.000  0.050  0.000
      -0.025 -0.000  0.809  0.021 -0.128
       0.082  0.050  0.021  0.851  0.011
      -0.031  0.000 -0.128  0.011  0.809

     Number of occupied Hubbard levels =   37.1656

     negative rho (up, down):  4.659E-05 5.546E-06

     HUBBARD ENERGY =    0.3561  (Ry)

     total cpu time spent up to now is      742.3 secs

     total energy              =   -1118.08643741 Ry
     estimated scf accuracy    <       3.95094857 Ry

     total magnetization       =     2.51 Bohr mag/cell
     absolute magnetization    =     3.11 Bohr mag/cell

     iteration #  3     ecut=   180.00 Ry     beta= 0.10
     Davidson diagonalization with overlap

---- Real-time Memory Report at c_bands before calling an iterative solver
         21937 MiB given to the printing process from OS
          1403 MiB allocation reported by mallinfo(arena+hblkhd)
        477622 MiB available memory on the node where the printing process lives
------------------
     ethr =  2.95E-03,  avg # of iterations =  1.0

     =================== HUBBARD OCCUPATIONS ===================
     ------------------------ ATOM    1 ------------------------
     Tr[ns(  1)] (up, down, total) =   4.99468  4.98050  9.97519
     Atomic magnetic moment for atom   1 =   0.01418
     SPIN  1
     eigenvalues:
       0.999  0.999  0.999  0.999  0.999
     eigenvectors (columns):
       0.523  0.295 -0.000 -0.377 -0.705
      -0.007 -0.653  0.577 -0.490 -0.016
      -0.562  0.332  0.577  0.259 -0.417
      -0.295  0.523 -0.000 -0.705  0.377
      -0.569 -0.321 -0.577 -0.231 -0.432
     occupation matrix ns (before diag.):
       0.999  0.000  0.000  0.000  0.000
       0.000  0.999  0.000  0.000 -0.000
       0.000  0.000  0.999 -0.000 -0.000
       0.000  0.000 -0.000  0.999 -0.000
       0.000 -0.000 -0.000 -0.000  0.999
     SPIN  2
     eigenvalues:
       0.993  0.993  0.997  0.999  0.999
     eigenvectors (columns):
       0.411  0.159  0.000 -0.325 -0.837
      -0.114 -0.724  0.577 -0.356 -0.055
      -0.570  0.460  0.577  0.226 -0.281
      -0.159  0.411 -0.000 -0.837  0.325
      -0.684 -0.264 -0.577 -0.130 -0.336
     occupation matrix ns (before diag.):
       0.998  0.001  0.001  0.000  0.002
       0.001  0.995  0.001  0.002 -0.001
       0.001  0.001  0.995 -0.002 -0.001
       0.000  0.002 -0.002  0.998 -0.000
       0.002 -0.001 -0.001 -0.000  0.995
     ------------------------ ATOM    2 ------------------------
     Tr[ns(  2)] (up, down, total) =   4.92625  4.22755  9.15380
     Atomic magnetic moment for atom   2 =   0.69870
     SPIN  1
     eigenvalues:
       0.967  0.972  0.991  0.998  0.998
     eigenvectors (columns):
      -0.524  0.000  0.211 -0.000 -0.825
      -0.510  0.498 -0.443  0.502  0.210
      -0.510 -0.498 -0.443 -0.502  0.210
       0.000  0.710 -0.000 -0.704  0.000
       0.454 -0.000 -0.750 -0.000 -0.480
     occupation matrix ns (before diag.):
       0.989 -0.008 -0.008  0.000  0.008
      -0.008  0.982 -0.003 -0.009  0.005
      -0.008 -0.003  0.982  0.009  0.005
       0.000 -0.009  0.009  0.985 -0.000
       0.008  0.005  0.005 -0.000  0.988
     SPIN  2
     eigenvalues:
       0.652  0.781  0.865  0.951  0.979
     eigenvectors (columns):
       0.000 -0.000  0.747 -0.043 -0.664
      -0.590 -0.390  0.062 -0.695  0.114
       0.590  0.390  0.062 -0.695  0.114
      -0.552  0.834  0.000 -0.000  0.000
      -0.000  0.000 -0.659 -0.178 -0.730
     occupation matrix ns (before diag.):
       0.915 -0.006 -0.006  0.000  0.056
      -0.006  0.821  0.130 -0.042  0.001
      -0.006  0.130  0.821  0.042  0.001
       0.000 -0.042  0.042  0.742 -0.000
       0.056  0.001  0.001 -0.000  0.929
     ------------------------ ATOM    3 ------------------------
     Tr[ns(  3)] (up, down, total) =   4.92625  4.22755  9.15380
     Atomic magnetic moment for atom   3 =   0.69870
     SPIN  1
     eigenvalues:
       0.967  0.972  0.991  0.998  0.998
     eigenvectors (columns):
       0.262  0.615 -0.105  0.610  0.413
      -0.510  0.498 -0.443 -0.502  0.210
      -0.454  0.000  0.750  0.000  0.480
      -0.454  0.355  0.183  0.352 -0.715
       0.510  0.498  0.443 -0.502 -0.210
     occupation matrix ns (before diag.):
       0.986 -0.004  0.004 -0.002 -0.012
      -0.004  0.982 -0.005 -0.011  0.003
       0.004 -0.005  0.988 -0.007  0.005
      -0.002 -0.011 -0.007  0.988  0.002
      -0.012  0.003  0.005  0.002  0.982
     SPIN  2
     eigenvalues:
       0.652  0.781  0.865  0.951  0.979
     eigenvectors (columns):
      -0.478  0.722  0.373 -0.021 -0.332
      -0.590 -0.390 -0.062  0.695 -0.114
       0.000 -0.000 -0.659 -0.178 -0.730
      -0.276  0.417 -0.647  0.037  0.575
      -0.590 -0.390  0.062 -0.695  0.114
     occupation matrix ns (before diag.):
       0.785 -0.033  0.028 -0.075 -0.039
      -0.033  0.821 -0.001 -0.026 -0.130
       0.028 -0.001  0.929 -0.048  0.001
      -0.075 -0.026 -0.048  0.872 -0.016
      -0.039 -0.130  0.001 -0.016  0.821
     ------------------------ ATOM    4 ------------------------
     Tr[ns(  4)] (up, down, total) =   4.92625  4.22755  9.15380
     Atomic magnetic moment for atom   4 =   0.69870
     SPIN  1
     eigenvalues:
       0.967  0.972  0.991  0.998  0.998
     eigenvectors (columns):
       0.262  0.615 -0.105  0.610  0.413
      -0.454 -0.000  0.750  0.000  0.480
      -0.510  0.498 -0.443 -0.502  0.210
       0.454 -0.355 -0.183 -0.352  0.715
       0.510  0.498  0.443 -0.502 -0.210
     occupation matrix ns (before diag.):
       0.986  0.004 -0.004  0.002 -0.012
       0.004  0.988 -0.005  0.007  0.005
      -0.004 -0.005  0.982  0.011  0.003
       0.002  0.007  0.011  0.988 -0.002
      -0.012  0.005  0.003 -0.002  0.982
     SPIN  2
     eigenvalues:
       0.652  0.781  0.865  0.951  0.979
     eigenvectors (columns):
      -0.478  0.722  0.373 -0.021 -0.332
      -0.000  0.000 -0.659 -0.178 -0.730
      -0.590 -0.390 -0.062  0.695 -0.114
       0.276 -0.417  0.647 -0.037 -0.575
      -0.590 -0.390  0.062 -0.695  0.114
     occupation matrix ns (before diag.):
       0.785  0.028 -0.033  0.075 -0.039
       0.028  0.929 -0.001  0.048  0.001
      -0.033 -0.001  0.821  0.026 -0.130
       0.075  0.048  0.026  0.872  0.016
      -0.039  0.001 -0.130  0.016  0.821

     Number of occupied Hubbard levels =   37.4366

     negative rho (up, down):  4.392E-05 5.328E-06

     HUBBARD ENERGY =    0.3512  (Ry)

     total cpu time spent up to now is      845.4 secs

     total energy              =   -1117.91579394 Ry
     estimated scf accuracy    <       2.99761862 Ry

     total magnetization       =     2.14 Bohr mag/cell
     absolute magnetization    =     2.95 Bohr mag/cell

     iteration #  4     ecut=   180.00 Ry     beta= 0.10
     Davidson diagonalization with overlap

---- Real-time Memory Report at c_bands before calling an iterative solver
         22518 MiB given to the printing process from OS
          2016 MiB allocation reported by mallinfo(arena+hblkhd)
        477023 MiB available memory on the node where the printing process lives
------------------
     ethr =  2.95E-03,  avg # of iterations =  1.0

     =================== HUBBARD OCCUPATIONS ===================
     ------------------------ ATOM    1 ------------------------
     Tr[ns(  1)] (up, down, total) =   4.99191  4.83474  9.82665
     Atomic magnetic moment for atom   1 =   0.15717
     SPIN  1
     eigenvalues:
       0.997  0.997  0.998  1.000  1.000
     eigenvectors (columns):
       0.546  0.326 -0.000 -0.401 -0.659
       0.009 -0.630  0.577 -0.519  0.012
      -0.550  0.307  0.577  0.249 -0.456
      -0.326  0.546 -0.000 -0.659  0.401
      -0.541 -0.323 -0.577 -0.270 -0.444
     occupation matrix ns (before diag.):
       0.999  0.001  0.001  0.000  0.001
       0.001  0.998  0.000  0.001 -0.000
       0.001  0.000  0.998 -0.001 -0.000
       0.000  0.001 -0.001  0.999 -0.000
       0.001 -0.000 -0.000 -0.000  0.998
     SPIN  2
     eigenvalues:
       0.946  0.946  0.976  0.976  0.991
     eigenvectors (columns):
      -0.552 -0.311  0.386  0.670  0.000
       0.007  0.632  0.517  0.000 -0.577
       0.544 -0.321 -0.259  0.448 -0.577
       0.311 -0.552  0.670 -0.386 -0.000
       0.550  0.310  0.258  0.448  0.577
     occupation matrix ns (before diag.):
       0.964  0.006  0.006  0.000  0.012
       0.006  0.969  0.011  0.011 -0.011
       0.006  0.011  0.969 -0.011 -0.011
       0.000  0.011 -0.011  0.964 -0.000
       0.012 -0.011 -0.011 -0.000  0.969
     ------------------------ ATOM    2 ------------------------
     Tr[ns(  2)] (up, down, total) =   4.93740  4.29734  9.23474
     Atomic magnetic moment for atom   2 =   0.64005
     SPIN  1
     eigenvalues:
       0.974  0.975  0.992  0.998  0.998
     eigenvectors (columns):
      -0.539  0.000 -0.204 -0.000  0.817
      -0.507  0.520  0.438  0.479 -0.225
      -0.507 -0.520  0.438 -0.479 -0.225
       0.000  0.677  0.000 -0.736 -0.000
       0.441 -0.000  0.758 -0.000  0.480
     occupation matrix ns (before diag.):
       0.991 -0.006 -0.006  0.000  0.007
      -0.006  0.984 -0.001 -0.008  0.003
      -0.006 -0.001  0.984  0.008  0.003
       0.000 -0.008  0.008  0.987 -0.000
       0.007  0.003  0.003 -0.000  0.990
     SPIN  2
     eigenvalues:
       0.655  0.834  0.859  0.963  0.986
     eigenvectors (columns):
       0.000 -0.000  0.683 -0.021 -0.730
      -0.601 -0.372  0.123 -0.683  0.134
       0.601  0.372  0.123 -0.683  0.134
      -0.526  0.850  0.000 -0.000  0.000
      -0.000  0.000 -0.710 -0.256 -0.656
     occupation matrix ns (before diag.):
       0.927 -0.011 -0.011  0.000  0.061
      -0.011  0.833  0.128 -0.057  0.007
      -0.011  0.128  0.833  0.057  0.007
       0.000 -0.057  0.057  0.785 -0.000
       0.061  0.007  0.007 -0.000  0.921
     ------------------------ ATOM    3 ------------------------
     Tr[ns(  3)] (up, down, total) =   4.93740  4.29734  9.23474
     Atomic magnetic moment for atom   3 =   0.64005
     SPIN  1
     eigenvalues:
       0.974  0.975  0.992  0.998  0.998
     eigenvectors (columns):
       0.270 -0.586 -0.102  0.637  0.409
      -0.507 -0.520 -0.438 -0.479  0.225
      -0.441  0.000  0.758  0.000  0.480
      -0.467 -0.338  0.177  0.368 -0.708
       0.507 -0.520  0.438 -0.479 -0.225
     occupation matrix ns (before diag.):
       0.988 -0.004  0.003 -0.002 -0.010
      -0.004  0.984 -0.003 -0.009  0.001
       0.003 -0.003  0.990 -0.006  0.003
      -0.002 -0.009 -0.006  0.990  0.001
      -0.010  0.001  0.003  0.001  0.984
     SPIN  2
     eigenvalues:
       0.655  0.834  0.859  0.963  0.986
     eigenvectors (columns):
      -0.456  0.736 -0.341 -0.010 -0.365
      -0.601 -0.372  0.123  0.683 -0.134
       0.000 -0.000  0.710 -0.256 -0.656
      -0.263  0.425  0.591  0.018  0.633
      -0.601 -0.372 -0.123 -0.683  0.134
     occupation matrix ns (before diag.):
       0.820 -0.044  0.030 -0.062 -0.054
      -0.044  0.833 -0.007 -0.038 -0.128
       0.030 -0.007  0.921 -0.053  0.007
      -0.062 -0.038 -0.053  0.891 -0.019
      -0.054 -0.128  0.007 -0.019  0.833
     ------------------------ ATOM    4 ------------------------
     Tr[ns(  4)] (up, down, total) =   4.93740  4.29734  9.23474
     Atomic magnetic moment for atom   4 =   0.64005
     SPIN  1
     eigenvalues:
       0.974  0.975  0.992  0.998  0.998
     eigenvectors (columns):
       0.270 -0.586 -0.102  0.637  0.409
      -0.441  0.000  0.758  0.000  0.480
      -0.507 -0.520 -0.438 -0.479  0.225
       0.467  0.338 -0.177 -0.368  0.708
       0.507 -0.520  0.438 -0.479 -0.225
     occupation matrix ns (before diag.):
       0.988  0.003 -0.004  0.002 -0.010
       0.003  0.990 -0.003  0.006  0.003
      -0.004 -0.003  0.984  0.009  0.001
       0.002  0.006  0.009  0.990 -0.001
      -0.010  0.003  0.001 -0.001  0.984
     SPIN  2
     eigenvalues:
       0.655  0.834  0.859  0.963  0.986
     eigenvectors (columns):
      -0.456  0.736 -0.341 -0.010 -0.365
      -0.000  0.000  0.710 -0.256 -0.656
      -0.601 -0.372  0.123  0.683 -0.134
       0.263 -0.425 -0.591 -0.018 -0.633
      -0.601 -0.372 -0.123 -0.683  0.134
     occupation matrix ns (before diag.):
       0.820  0.030 -0.044  0.062 -0.054
       0.030  0.921 -0.007  0.053  0.007
      -0.044 -0.007  0.833  0.038 -0.128
       0.062  0.053  0.038  0.891  0.019
      -0.054  0.007 -0.128  0.019  0.833

     Number of occupied Hubbard levels =   37.5309

     negative rho (up, down):  3.679E-05 5.218E-06

     HUBBARD ENERGY =    0.3329  (Ry)

     total cpu time spent up to now is      945.9 secs

     total energy              =   -1117.75470366 Ry
     estimated scf accuracy    <       1.82012650 Ry

     total magnetization       =     2.11 Bohr mag/cell
     absolute magnetization    =     2.89 Bohr mag/cell

     iteration #  5     ecut=   180.00 Ry     beta= 0.10
     Davidson diagonalization with overlap

---- Real-time Memory Report at c_bands before calling an iterative solver
         23055 MiB given to the printing process from OS
         -1541 MiB allocation reported by mallinfo(arena+hblkhd)
        476464 MiB available memory on the node where the printing process lives
------------------
     ethr =  2.53E-03,  avg # of iterations =  2.0

     =================== HUBBARD OCCUPATIONS ===================
     ------------------------ ATOM    1 ------------------------
     Tr[ns(  1)] (up, down, total) =   4.96015  0.95447  5.91462
     Atomic magnetic moment for atom   1 =   4.00568
     SPIN  1
     eigenvalues:
       0.990  0.990  0.990  0.996  0.996
     eigenvectors (columns):
      -0.000 -0.596 -0.364  0.441  0.564
      -0.577 -0.014  0.584  0.564 -0.079
      -0.577  0.513 -0.280 -0.214  0.528
       0.000  0.364 -0.596  0.564 -0.441
       0.577  0.499  0.305  0.351  0.449
     occupation matrix ns (before diag.):
       0.993  0.001  0.001  0.000  0.002
       0.001  0.992 -0.001  0.002  0.001
       0.001 -0.001  0.992 -0.002  0.001
       0.000  0.002 -0.002  0.993 -0.000
       0.002  0.001  0.001 -0.000  0.992
     SPIN  2
     eigenvalues:
       0.050  0.050  0.253  0.253  0.349
     eigenvectors (columns):
       0.139 -0.867  0.418  0.234  0.000
       0.365 -0.139 -0.010 -0.717 -0.577
      -0.303 -0.247 -0.616  0.367 -0.577
       0.867  0.139 -0.234  0.418 -0.000
       0.062 -0.386 -0.626 -0.350  0.577
     occupation matrix ns (before diag.):
       0.097 -0.035 -0.035  0.000 -0.070
      -0.035  0.254  0.047 -0.060 -0.047
      -0.035  0.047  0.254  0.060 -0.047
       0.000 -0.060  0.060  0.097 -0.000
      -0.070 -0.047 -0.047 -0.000  0.254
     ------------------------ ATOM    2 ------------------------
     Tr[ns(  2)] (up, down, total) =   4.97836  4.81471  9.79307
     Atomic magnetic moment for atom   2 =   0.16365
     SPIN  1
     eigenvalues:
       0.990  0.995  0.996  0.998  0.999
     eigenvectors (columns):
      -0.595 -0.000  0.090  0.799 -0.000
      -0.266 -0.552  0.599 -0.266 -0.442
      -0.266  0.552  0.599 -0.266  0.442
       0.000 -0.625 -0.000  0.000  0.781
       0.710 -0.000  0.524  0.470 -0.000
     occupation matrix ns (before diag.):
       0.996 -0.001 -0.001  0.000  0.003
      -0.001  0.996 -0.000 -0.001  0.001
      -0.001 -0.000  0.996  0.001  0.001
       0.000 -0.001  0.001  0.997 -0.000
       0.003  0.001  0.001 -0.000  0.994
     SPIN  2
     eigenvalues:
       0.925  0.928  0.980  0.987  0.995
     eigenvectors (columns):
       0.000 -0.520  0.118  0.000  0.846
      -0.554 -0.361 -0.591 -0.439 -0.140
       0.554 -0.361 -0.591  0.439 -0.140
      -0.621 -0.000 -0.000  0.784 -0.000
      -0.000  0.684 -0.535 -0.000  0.495
     occupation matrix ns (before diag.):
       0.976 -0.012 -0.012  0.000  0.025
      -0.012  0.958  0.009 -0.021  0.012
      -0.012  0.009  0.958  0.021  0.012
       0.000 -0.021  0.021  0.963 -0.000
       0.025  0.012  0.012 -0.000  0.959
     ------------------------ ATOM    3 ------------------------
     Tr[ns(  3)] (up, down, total) =   4.97836  4.81471  9.79307
     Atomic magnetic moment for atom   3 =   0.16365
     SPIN  1
     eigenvalues:
       0.990  0.995  0.996  0.998  0.999
     eigenvectors (columns):
      -0.297 -0.541  0.045  0.399  0.676
       0.266 -0.552 -0.599  0.266 -0.442
       0.710  0.000  0.524  0.470 -0.000
       0.515 -0.312 -0.078 -0.692  0.390
      -0.266 -0.552  0.599 -0.266 -0.442
     occupation matrix ns (before diag.):
       0.997 -0.000  0.002  0.001 -0.002
      -0.000  0.996 -0.001 -0.002  0.000
       0.002 -0.001  0.994 -0.003  0.001
       0.001 -0.002 -0.003  0.996  0.001
      -0.002  0.000  0.001  0.001  0.996
     SPIN  2
     eigenvalues:
       0.925  0.928  0.980  0.987  0.995
     eigenvectors (columns):
       0.537  0.260 -0.059 -0.679  0.423
       0.554 -0.361 -0.591  0.439  0.140
      -0.000 -0.684  0.535 -0.000  0.495
       0.310 -0.450  0.102 -0.392 -0.733
       0.554  0.361  0.591  0.439 -0.140
     occupation matrix ns (before diag.):
       0.967 -0.013  0.012 -0.006 -0.024
      -0.013  0.958 -0.012 -0.021 -0.009
       0.012 -0.012  0.959 -0.021  0.012
      -0.006 -0.021 -0.021  0.973 -0.001
      -0.024 -0.009  0.012 -0.001  0.958
     ------------------------ ATOM    4 ------------------------
     Tr[ns(  4)] (up, down, total) =   4.97836  4.81471  9.79307
     Atomic magnetic moment for atom   4 =   0.16365
     SPIN  1
     eigenvalues:
       0.990  0.995  0.996  0.998  0.999
     eigenvectors (columns):
      -0.297 -0.541  0.045  0.399  0.676
       0.710  0.000  0.524  0.470 -0.000
       0.266 -0.552 -0.599  0.266 -0.442
      -0.515  0.312  0.078  0.692 -0.390
      -0.266 -0.552  0.599 -0.266 -0.442
     occupation matrix ns (before diag.):
       0.997  0.002 -0.000 -0.001 -0.002
       0.002  0.994 -0.001  0.003  0.001
      -0.000 -0.001  0.996  0.002  0.000
      -0.001  0.003  0.002  0.996 -0.001
      -0.002  0.001  0.000 -0.001  0.996
     SPIN  2
     eigenvalues:
       0.925  0.928  0.980  0.987  0.995
     eigenvectors (columns):
       0.537  0.260 -0.059 -0.679  0.423
       0.000 -0.684  0.535 -0.000  0.495
       0.554 -0.361 -0.591  0.439  0.140
      -0.310  0.450 -0.102  0.392  0.733
       0.554  0.361  0.591  0.439 -0.140
     occupation matrix ns (before diag.):
       0.967  0.012 -0.013  0.006 -0.024
       0.012  0.959 -0.012  0.021  0.012
      -0.013 -0.012  0.958  0.021 -0.009
       0.006  0.021  0.021  0.973  0.001
      -0.024  0.012 -0.009  0.001  0.958

     Number of occupied Hubbard levels =   35.2938

     negative rho (up, down):  3.707E-05 5.057E-06

     HUBBARD ENERGY =    0.3346  (Ry)

     total cpu time spent up to now is     1051.6 secs

     total energy              =   -1117.99027343 Ry
     estimated scf accuracy    <       7.31522859 Ry

     total magnetization       =     5.93 Bohr mag/cell
     absolute magnetization    =     6.00 Bohr mag/cell

     iteration #  6     ecut=   180.00 Ry     beta= 0.10
     Davidson diagonalization with overlap

---- Real-time Memory Report at c_bands before calling an iterative solver
         23592 MiB given to the printing process from OS
         -1003 MiB allocation reported by mallinfo(arena+hblkhd)
        475939 MiB available memory on the node where the printing process lives
------------------
     ethr =  2.53E-03,  avg # of iterations =  1.0

     =================== HUBBARD OCCUPATIONS ===================
     ------------------------ ATOM    1 ------------------------
     Tr[ns(  1)] (up, down, total) =   4.96712  1.93634  6.90345
     Atomic magnetic moment for atom   1 =   3.03078
     SPIN  1
     eigenvalues:
       0.990  0.990  0.993  0.997  0.997
     eigenvectors (columns):
       0.567  0.337 -0.000 -0.384 -0.646
       0.008 -0.613  0.577 -0.539  0.007
      -0.535  0.300  0.577  0.264 -0.470
      -0.337  0.567  0.000 -0.646  0.384
      -0.527 -0.313 -0.577 -0.275 -0.463
     occupation matrix ns (before diag.):
       0.994  0.001  0.001  0.000  0.003
       0.001  0.993 -0.000  0.002  0.000
       0.001 -0.000  0.993 -0.002  0.000
       0.000  0.002 -0.002  0.994 -0.000
       0.003  0.000  0.000 -0.000  0.993
     SPIN  2
     eigenvalues:
       0.149  0.149  0.457  0.457  0.724
     eigenvectors (columns):
      -0.265 -0.880  0.372  0.128  0.000
      -0.313 -0.074 -0.143 -0.737 -0.577
       0.220 -0.234 -0.567  0.492 -0.577
      -0.880  0.265 -0.128  0.372 -0.000
      -0.093 -0.308 -0.710 -0.245  0.577
     occupation matrix ns (before diag.):
       0.197 -0.046 -0.046  0.000 -0.091
      -0.046  0.514  0.105 -0.079 -0.105
      -0.046  0.105  0.514  0.079 -0.105
       0.000 -0.079  0.079  0.197 -0.000
      -0.091 -0.105 -0.105 -0.000  0.514
     ------------------------ ATOM    2 ------------------------
     Tr[ns(  2)] (up, down, total) =   4.97079  4.72037  9.69117
     Atomic magnetic moment for atom   2 =   0.25042
     SPIN  1
     eigenvalues:
       0.988  0.991  0.995  0.998  0.998
     eigenvectors (columns):
      -0.585 -0.000  0.014  0.811 -0.000
      -0.356 -0.546 -0.558 -0.248 -0.449
      -0.356  0.546 -0.558 -0.248  0.449
       0.000 -0.635 -0.000  0.000  0.773
       0.635  0.000 -0.613  0.469 -0.000
     occupation matrix ns (before diag.):
       0.995 -0.002 -0.002  0.000  0.004
      -0.002  0.994 -0.000 -0.003  0.001
      -0.002 -0.000  0.994  0.003  0.001
       0.000 -0.003  0.003  0.995 -0.000
       0.004  0.001  0.001 -0.000  0.993
     SPIN  2
     eigenvalues:
       0.852  0.912  0.979  0.982  0.995
     eigenvectors (columns):
      -0.000 -0.529  0.096 -0.000  0.843
       0.577 -0.353 -0.593  0.408 -0.154
      -0.577 -0.353 -0.593 -0.408 -0.154
       0.578  0.000 -0.000 -0.816 -0.000
       0.000  0.687 -0.535  0.000  0.491
     occupation matrix ns (before diag.):
       0.971 -0.014 -0.014  0.000  0.031
      -0.014  0.929  0.034 -0.043  0.015
      -0.014  0.034  0.929  0.043  0.015
       0.000 -0.043  0.043  0.939 -0.000
       0.031  0.015  0.015 -0.000  0.951
     ------------------------ ATOM    3 ------------------------
     Tr[ns(  3)] (up, down, total) =   4.97079  4.72037  9.69117
     Atomic magnetic moment for atom   3 =   0.25042
     SPIN  1
     eigenvalues:
       0.988  0.991  0.995  0.998  0.998
     eigenvectors (columns):
      -0.293 -0.550 -0.007  0.405  0.669
       0.356 -0.546 -0.558  0.248 -0.449
       0.635  0.000  0.613  0.469 -0.000
       0.507 -0.317  0.012 -0.702  0.386
      -0.356 -0.546  0.558 -0.248 -0.449
     occupation matrix ns (before diag.):
       0.995 -0.001  0.002  0.000 -0.003
      -0.001  0.994 -0.001 -0.003  0.000
       0.002 -0.001  0.993 -0.003  0.001
       0.000 -0.003 -0.003  0.995  0.001
      -0.003  0.000  0.001  0.001  0.994
     SPIN  2
     eigenvalues:
       0.852  0.912  0.979  0.982  0.995
     eigenvectors (columns):
       0.500  0.264  0.048 -0.707 -0.422
       0.577 -0.353  0.593  0.408 -0.154
      -0.000 -0.687 -0.535 -0.000 -0.491
       0.289 -0.458 -0.083 -0.408  0.730
       0.577  0.353 -0.593  0.408  0.154
     occupation matrix ns (before diag.):
       0.947 -0.030  0.015 -0.014 -0.045
      -0.030  0.929 -0.015 -0.034 -0.034
       0.015 -0.015  0.951 -0.027  0.015
      -0.014 -0.034 -0.027  0.963 -0.009
      -0.045 -0.034  0.015 -0.009  0.929
     ------------------------ ATOM    4 ------------------------
     Tr[ns(  4)] (up, down, total) =   4.97079  4.72037  9.69117
     Atomic magnetic moment for atom   4 =   0.25042
     SPIN  1
     eigenvalues:
       0.988  0.991  0.995  0.998  0.998
     eigenvectors (columns):
      -0.293 -0.550 -0.007  0.405  0.669
       0.635  0.000  0.613  0.469 -0.000
       0.356 -0.546 -0.558  0.248 -0.449
      -0.507  0.317 -0.012  0.702 -0.386
      -0.356 -0.546  0.558 -0.248 -0.449
     occupation matrix ns (before diag.):
       0.995  0.002 -0.001 -0.000 -0.003
       0.002  0.993 -0.001  0.003  0.001
      -0.001 -0.001  0.994  0.003  0.000
      -0.000  0.003  0.003  0.995 -0.001
      -0.003  0.001  0.000 -0.001  0.994
     SPIN  2
     eigenvalues:
       0.852  0.912  0.979  0.982  0.995
     eigenvectors (columns):
      -0.500 -0.264  0.048  0.707  0.422
      -0.000  0.687 -0.535  0.000  0.491
      -0.577  0.353  0.593 -0.408  0.154
       0.289 -0.458  0.083 -0.408  0.730
      -0.577 -0.353 -0.593 -0.408 -0.154
     occupation matrix ns (before diag.):
       0.947  0.015 -0.030  0.014 -0.045
       0.015  0.951 -0.015  0.027  0.015
      -0.030 -0.015  0.929  0.034 -0.034
       0.014  0.027  0.034  0.963  0.009
      -0.045  0.015 -0.034  0.009  0.929

     Number of occupied Hubbard levels =   35.9770

     negative rho (up, down):  3.634E-05 4.989E-06

     HUBBARD ENERGY =    0.3302  (Ry)

     total cpu time spent up to now is     1150.5 secs

     total energy              =   -1117.98171297 Ry
     estimated scf accuracy    <       3.44232401 Ry

     total magnetization       =     5.03 Bohr mag/cell
     absolute magnetization    =     5.14 Bohr mag/cell

     iteration #  7     ecut=   180.00 Ry     beta= 0.10
     Davidson diagonalization with overlap

---- Real-time Memory Report at c_bands before calling an iterative solver
         24130 MiB given to the printing process from OS
          -466 MiB allocation reported by mallinfo(arena+hblkhd)
        475381 MiB available memory on the node where the printing process lives
------------------
     ethr =  2.53E-03,  avg # of iterations =  1.0

     =================== HUBBARD OCCUPATIONS ===================
     ------------------------ ATOM    1 ------------------------
     Tr[ns(  1)] (up, down, total) =   4.96924  2.43038  7.39962
     Atomic magnetic moment for atom   1 =   2.53887
     SPIN  1
     eigenvalues:
       0.990  0.990  0.993  0.998  0.998
     eigenvectors (columns):
      -0.541 -0.356 -0.000 -0.398 -0.649
      -0.036  0.621  0.577 -0.529  0.014
       0.556 -0.279  0.577  0.252 -0.465
       0.356 -0.541 -0.000 -0.649  0.398
       0.520  0.342 -0.577 -0.276 -0.451
     occupation matrix ns (before diag.):
       0.995  0.001  0.001  0.000  0.003
       0.001  0.993  0.000  0.003 -0.000
       0.001  0.000  0.993 -0.003 -0.000
       0.000  0.003 -0.003  0.995 -0.000
       0.003 -0.000 -0.000 -0.000  0.993
     SPIN  2
     eigenvalues:
       0.234  0.234  0.563  0.563  0.836
     eigenvectors (columns):
       0.007 -0.953  0.287  0.098  0.000
      -0.214 -0.126 -0.150 -0.763 -0.577
       0.215 -0.122 -0.586  0.512 -0.577
      -0.953 -0.007 -0.098  0.287 -0.000
       0.002 -0.248 -0.736 -0.252  0.577
     occupation matrix ns (before diag.):
       0.265 -0.039 -0.039  0.000 -0.078
      -0.039  0.634  0.101 -0.067 -0.101
      -0.039  0.101  0.634  0.067 -0.101
       0.000 -0.067  0.067  0.265 -0.000
      -0.078 -0.101 -0.101 -0.000  0.634
     ------------------------ ATOM    2 ------------------------
     Tr[ns(  2)] (up, down, total) =   4.96575  4.66065  9.62639
     Atomic magnetic moment for atom   2 =   0.30510
     SPIN  1
     eigenvalues:
       0.986  0.988  0.995  0.998  0.998
     eigenvectors (columns):
      -0.569  0.000  0.071  0.819  0.000
      -0.408  0.544 -0.526 -0.238  0.452
      -0.408 -0.544 -0.526 -0.238 -0.452
       0.000  0.639 -0.000  0.000 -0.769
       0.586 -0.000 -0.664  0.464  0.000
     occupation matrix ns (before diag.):
       0.994 -0.003 -0.003  0.000  0.004
      -0.003  0.992 -0.000 -0.003  0.002
      -0.003 -0.000  0.992  0.003  0.002
       0.000 -0.003  0.003  0.994 -0.000
       0.004  0.002  0.002 -0.000  0.992
     SPIN  2
     eigenvalues:
       0.800  0.908  0.979  0.979  0.994
     eigenvectors (columns):
      -0.000 -0.534  0.093 -0.000  0.841
       0.584 -0.347 -0.596  0.398 -0.154
      -0.584 -0.347 -0.596 -0.398 -0.154
       0.563  0.000 -0.000 -0.826 -0.000
       0.000  0.688 -0.529  0.000  0.496
     occupation matrix ns (before diag.):
       0.970 -0.015 -0.015  0.000  0.033
      -0.015  0.910  0.053 -0.059  0.016
      -0.015  0.053  0.910  0.059  0.016
       0.000 -0.059  0.059  0.922 -0.000
       0.033  0.016  0.016 -0.000  0.949
     ------------------------ ATOM    3 ------------------------
     Tr[ns(  3)] (up, down, total) =   4.96575  4.66065  9.62639
     Atomic magnetic moment for atom   3 =   0.30510
     SPIN  1
     eigenvalues:
       0.986  0.988  0.995  0.998  0.998
     eigenvectors (columns):
      -0.285  0.554  0.035  0.410  0.666
       0.408  0.544  0.526  0.238 -0.452
       0.586 -0.000 -0.664  0.464 -0.000
       0.493  0.320 -0.061 -0.709  0.384
      -0.408  0.544 -0.526 -0.238 -0.452
     occupation matrix ns (before diag.):
       0.994 -0.002  0.002 -0.000 -0.004
      -0.002  0.992 -0.002 -0.004  0.000
       0.002 -0.002  0.992 -0.004  0.002
      -0.000 -0.004 -0.004  0.994  0.001
      -0.004  0.000  0.002  0.001  0.992
     SPIN  2
     eigenvalues:
       0.800  0.908  0.979  0.979  0.994
     eigenvectors (columns):
       0.488  0.267  0.047 -0.715 -0.420
       0.584 -0.347  0.596  0.398 -0.154
      -0.000 -0.688 -0.529 -0.000 -0.496
       0.282 -0.462 -0.081 -0.413  0.728
       0.584  0.347 -0.596  0.398  0.154
     occupation matrix ns (before diag.):
       0.934 -0.044  0.016 -0.020 -0.059
      -0.044  0.910 -0.016 -0.043 -0.053
       0.016 -0.016  0.949 -0.028  0.016
      -0.020 -0.043 -0.028  0.958 -0.016
      -0.059 -0.053  0.016 -0.016  0.910
     ------------------------ ATOM    4 ------------------------
     Tr[ns(  4)] (up, down, total) =   4.96575  4.66065  9.62639
     Atomic magnetic moment for atom   4 =   0.30510
     SPIN  1
     eigenvalues:
       0.986  0.988  0.995  0.998  0.998
     eigenvectors (columns):
      -0.285  0.554  0.035  0.410  0.666
       0.586 -0.000 -0.664  0.464 -0.000
       0.408  0.544  0.526  0.238 -0.452
      -0.493 -0.320  0.061  0.709 -0.384
      -0.408  0.544 -0.526 -0.238 -0.452
     occupation matrix ns (before diag.):
       0.994  0.002 -0.002  0.000 -0.004
       0.002  0.992 -0.002  0.004  0.002
      -0.002 -0.002  0.992  0.004  0.000
       0.000  0.004  0.004  0.994 -0.001
      -0.004  0.002  0.000 -0.001  0.992
     SPIN  2
     eigenvalues:
       0.800  0.908  0.979  0.979  0.994
     eigenvectors (columns):
      -0.488 -0.267  0.047  0.715  0.420
      -0.000  0.688 -0.529  0.000  0.496
      -0.584  0.347  0.596 -0.398  0.154
       0.282 -0.462  0.081 -0.413  0.728
      -0.584 -0.347 -0.596 -0.398 -0.154
     occupation matrix ns (before diag.):
       0.934  0.016 -0.044  0.020 -0.059
       0.016  0.949 -0.016  0.028  0.016
      -0.044 -0.016  0.910  0.043 -0.053
       0.020  0.028  0.043  0.958  0.016
      -0.059  0.016 -0.053  0.016  0.910

     Number of occupied Hubbard levels =   36.2788

     negative rho (up, down):  2.335E-05 6.226E-06

     HUBBARD ENERGY =    0.2670  (Ry)

     total cpu time spent up to now is     1248.7 secs

     total energy              =   -1117.93446468 Ry
     estimated scf accuracy    <       2.03972555 Ry

     total magnetization       =     4.49 Bohr mag/cell
     absolute magnetization    =     4.64 Bohr mag/cell

     iteration #  8     ecut=   180.00 Ry     beta= 0.10
     Davidson diagonalization with overlap

---- Real-time Memory Report at c_bands before calling an iterative solver
         24667 MiB given to the printing process from OS
            71 MiB allocation reported by mallinfo(arena+hblkhd)
        474877 MiB available memory on the node where the printing process lives
------------------
     ethr =  2.53E-03,  avg # of iterations =  1.0

     =================== HUBBARD OCCUPATIONS ===================
     ------------------------ ATOM    1 ------------------------
     Tr[ns(  1)] (up, down, total) =   4.97916  4.36072  9.33988
     Atomic magnetic moment for atom   1 =   0.61844
     SPIN  1
     eigenvalues:
       0.993  0.993  0.995  0.999  0.999
     eigenvectors (columns):
      -0.517  0.247 -0.000 -0.397 -0.717
       0.052 -0.667  0.577 -0.468 -0.008
       0.552  0.379  0.577  0.241 -0.401
       0.247  0.517  0.000 -0.717  0.397
       0.604 -0.288 -0.577 -0.227 -0.409
     occupation matrix ns (before diag.):
       0.997  0.001  0.001  0.000  0.002
       0.001  0.995 -0.000  0.002  0.000
       0.001 -0.000  0.995 -0.002  0.000
       0.000  0.002 -0.002  0.997 -0.000
       0.002  0.000  0.000 -0.000  0.995
     SPIN  2
     eigenvalues:
       0.742  0.742  0.947  0.947  0.983
     eigenvectors (columns):
       0.650 -0.671  0.299 -0.196  0.000
       0.080  0.281  0.681  0.343 -0.577
      -0.283 -0.071 -0.044 -0.761 -0.577
      -0.671 -0.650  0.196  0.299 -0.000
      -0.203  0.210  0.637 -0.418  0.577
     occupation matrix ns (before diag.):
       0.768  0.028  0.028  0.000  0.056
       0.028  0.942  0.021  0.048 -0.021
       0.028  0.021  0.942 -0.048 -0.021
       0.000  0.048 -0.048  0.768 -0.000
       0.056 -0.021 -0.021 -0.000  0.942
     ------------------------ ATOM    2 ------------------------
     Tr[ns(  2)] (up, down, total) =   4.93140  4.40707  9.33846
     Atomic magnetic moment for atom   2 =   0.52433
     SPIN  1
     eigenvalues:
       0.971  0.974  0.993  0.997  0.997
     eigenvectors (columns):
      -0.438 -0.000  0.207  0.000 -0.875
      -0.529 -0.521 -0.440 -0.479  0.161
      -0.529  0.521 -0.440  0.479  0.161
       0.000 -0.677 -0.000  0.736  0.000
       0.498  0.000 -0.755  0.000 -0.428
     occupation matrix ns (before diag.):
       0.992 -0.006 -0.006  0.000  0.006
      -0.006  0.983 -0.002 -0.008  0.005
      -0.006 -0.002  0.983  0.008  0.005
       0.000 -0.008  0.008  0.986 -0.000
       0.006  0.005  0.005 -0.000  0.988
     SPIN  2
     eigenvalues:
       0.643  0.854  0.951  0.970  0.989
     eigenvectors (columns):
      -0.000 -0.579 -0.000  0.238  0.780
       0.595 -0.287  0.382 -0.646 -0.015
      -0.595 -0.287 -0.382 -0.646 -0.015
       0.540  0.000 -0.842 -0.000 -0.000
       0.000  0.708  0.000 -0.329  0.626
     occupation matrix ns (before diag.):
       0.943 -0.020 -0.020  0.000  0.057
      -0.020  0.842  0.109 -0.099  0.023
      -0.020  0.109  0.842  0.099  0.023
       0.000 -0.099  0.099  0.861 -0.000
       0.057  0.023  0.023 -0.000  0.919
     ------------------------ ATOM    3 ------------------------
     Tr[ns(  3)] (up, down, total) =   4.93140  4.40707  9.33846
     Atomic magnetic moment for atom   3 =   0.52433
     SPIN  1
     eigenvalues:
       0.971  0.974  0.993  0.997  0.997
     eigenvectors (columns):
       0.219  0.586 -0.103  0.638  0.437
      -0.529  0.521 -0.440 -0.479  0.161
      -0.498  0.000  0.755  0.000  0.428
      -0.379  0.338  0.179  0.368 -0.758
       0.529  0.521  0.440 -0.479 -0.161
     occupation matrix ns (before diag.):
       0.988 -0.004  0.003 -0.002 -0.010
      -0.004  0.983 -0.005 -0.009  0.002
       0.003 -0.005  0.988 -0.006  0.005
      -0.002 -0.009 -0.006  0.990  0.001
      -0.010  0.002  0.005  0.001  0.983
     SPIN  2
     eigenvalues:
       0.643  0.854  0.951  0.970  0.989
     eigenvectors (columns):
       0.468  0.289  0.729  0.119  0.390
       0.595 -0.287 -0.382  0.646  0.015
      -0.000 -0.708 -0.000 -0.329  0.626
       0.270 -0.501  0.421 -0.206 -0.675
       0.595  0.287 -0.382 -0.646 -0.015
     occupation matrix ns (before diag.):
       0.882 -0.076  0.029 -0.035 -0.096
      -0.076  0.842 -0.023 -0.067 -0.109
       0.029 -0.023  0.919 -0.049  0.023
      -0.035 -0.067 -0.049  0.922 -0.033
      -0.096 -0.109  0.023 -0.033  0.842
     ------------------------ ATOM    4 ------------------------
     Tr[ns(  4)] (up, down, total) =   4.93140  4.40707  9.33846
     Atomic magnetic moment for atom   4 =   0.52433
     SPIN  1
     eigenvalues:
       0.971  0.974  0.993  0.997  0.997
     eigenvectors (columns):
       0.219  0.586 -0.103  0.638  0.437
      -0.498 -0.000  0.755  0.000  0.428
      -0.529  0.521 -0.440 -0.479  0.161
       0.379 -0.338 -0.179 -0.368  0.758
       0.529  0.521  0.440 -0.479 -0.161
     occupation matrix ns (before diag.):
       0.988  0.003 -0.004  0.002 -0.010
       0.003  0.988 -0.005  0.006  0.005
      -0.004 -0.005  0.983  0.009  0.002
       0.002  0.006  0.009  0.990 -0.001
      -0.010  0.005  0.002 -0.001  0.983
     SPIN  2
     eigenvalues:
       0.643  0.854  0.951  0.970  0.989
     eigenvectors (columns):
       0.468  0.289  0.729  0.119  0.390
       0.000 -0.708 -0.000 -0.329  0.626
       0.595 -0.287 -0.382  0.646  0.015
      -0.270  0.501 -0.421  0.206  0.675
       0.595  0.287 -0.382 -0.646 -0.015
     occupation matrix ns (before diag.):
       0.882  0.029 -0.076  0.035 -0.096
       0.029  0.919 -0.023  0.049  0.023
      -0.076 -0.023  0.842  0.067 -0.109
       0.035  0.049  0.067  0.922  0.033
      -0.096  0.023 -0.109  0.033  0.842

     Number of occupied Hubbard levels =   37.3553

     negative rho (up, down):  1.365E-05 8.719E-06

     HUBBARD ENERGY =    0.2236  (Ry)

     total cpu time spent up to now is     1353.5 secs

     total energy              =   -1118.16377982 Ry
     estimated scf accuracy    <       0.39690308 Ry

     total magnetization       =     2.26 Bohr mag/cell
     absolute magnetization    =     2.79 Bohr mag/cell

     iteration #  9     ecut=   180.00 Ry     beta= 0.10
     Davidson diagonalization with overlap

---- Real-time Memory Report at c_bands before calling an iterative solver
         25206 MiB given to the printing process from OS
           609 MiB allocation reported by mallinfo(arena+hblkhd)
        474354 MiB available memory on the node where the printing process lives
------------------
     ethr =  5.51E-04,  avg # of iterations =  1.0

     =================== HUBBARD OCCUPATIONS ===================
     ------------------------ ATOM    1 ------------------------
     Tr[ns(  1)] (up, down, total) =   4.98535  4.78291  9.76826
     Atomic magnetic moment for atom   1 =   0.20243
     SPIN  1
     eigenvalues:
       0.996  0.996  0.996  0.999  0.999
     eigenvectors (columns):
      -0.517  0.245 -0.000 -0.407 -0.712
       0.054 -0.667  0.577 -0.467 -0.002
       0.551  0.381  0.577  0.235 -0.404
       0.245  0.517  0.000 -0.712  0.407
       0.605 -0.287 -0.577 -0.232 -0.406
     occupation matrix ns (before diag.):
       0.998  0.001  0.001  0.000  0.001
       0.001  0.996 -0.000  0.001  0.000
       0.001 -0.000  0.996 -0.001  0.000
       0.000  0.001 -0.001  0.998 -0.000
       0.001  0.000  0.000 -0.000  0.996
     SPIN  2
     eigenvalues:
       0.908  0.908  0.988  0.988  0.991
     eigenvectors (columns):
       0.620  0.439  0.418  0.498 -0.000
       0.049 -0.528  0.611 -0.108  0.577
      -0.482  0.222 -0.212  0.583  0.577
      -0.439  0.620  0.498 -0.418  0.000
      -0.433 -0.307  0.399  0.475 -0.577
     occupation matrix ns (before diag.):
       0.942  0.016  0.016  0.000  0.032
       0.016  0.966  0.012  0.028 -0.012
       0.016  0.012  0.966 -0.028 -0.012
       0.000  0.028 -0.028  0.942 -0.000
       0.032 -0.012 -0.012 -0.000  0.966
     ------------------------ ATOM    2 ------------------------
     Tr[ns(  2)] (up, down, total) =   4.90861  4.29999  9.20859
     Atomic magnetic moment for atom   2 =   0.60862
     SPIN  1
     eigenvalues:
       0.960  0.966  0.992  0.995  0.996
     eigenvectors (columns):
      -0.379 -0.000  0.294  0.000 -0.878
      -0.542 -0.521 -0.446 -0.478  0.085
      -0.542  0.521 -0.446  0.478  0.085
       0.000 -0.676 -0.000  0.737  0.000
       0.518  0.000 -0.719 -0.000 -0.464
     occupation matrix ns (before diag.):
       0.990 -0.007 -0.007  0.000  0.008
      -0.007  0.976 -0.003 -0.010  0.009
      -0.007 -0.003  0.976  0.010  0.009
       0.000 -0.010  0.010  0.982 -0.000
       0.008  0.009  0.009 -0.000  0.984
     SPIN  2
     eigenvalues:
       0.637  0.809  0.920  0.956  0.978
     eigenvectors (columns):
       0.000 -0.623  0.000  0.385  0.681
      -0.601 -0.250 -0.373 -0.647  0.137
       0.601 -0.250  0.373 -0.647  0.137
      -0.527  0.000  0.850 -0.000 -0.000
      -0.000  0.698 -0.000 -0.119  0.706
     occupation matrix ns (before diag.):
       0.909 -0.021 -0.021  0.000  0.074
      -0.021  0.827  0.111 -0.090  0.028
      -0.021  0.111  0.827  0.090  0.028
       0.000 -0.090  0.090  0.841 -0.000
       0.074  0.028  0.028 -0.000  0.895
     ------------------------ ATOM    3 ------------------------
     Tr[ns(  3)] (up, down, total) =   4.90861  4.29999  9.20859
     Atomic magnetic moment for atom   3 =   0.60862
     SPIN  1
     eigenvalues:
       0.960  0.966  0.992  0.995  0.996
     eigenvectors (columns):
      -0.189 -0.585  0.147 -0.639  0.439
       0.542 -0.521  0.446  0.478  0.085
       0.518 -0.000 -0.719 -0.000  0.464
       0.328 -0.338 -0.254 -0.369 -0.760
      -0.542 -0.521 -0.446  0.478 -0.085
     occupation matrix ns (before diag.):
       0.984 -0.005  0.004 -0.004 -0.012
      -0.005  0.976 -0.009 -0.011  0.003
       0.004 -0.009  0.984 -0.007  0.009
      -0.004 -0.011 -0.007  0.988  0.001
      -0.012  0.003  0.009  0.001  0.976
     SPIN  2
     eigenvalues:
       0.637  0.809  0.920  0.956  0.978
     eigenvectors (columns):
      -0.457 -0.312 -0.736 -0.193  0.340
      -0.601  0.250  0.373 -0.647 -0.137
       0.000  0.698  0.000  0.119  0.706
      -0.264  0.540 -0.425  0.333 -0.589
      -0.601 -0.250  0.373  0.647  0.137
     occupation matrix ns (before diag.):
       0.858 -0.067  0.037 -0.029 -0.088
      -0.067  0.827 -0.028 -0.063 -0.111
       0.037 -0.028  0.895 -0.064  0.028
      -0.029 -0.063 -0.064  0.892 -0.027
      -0.088 -0.111  0.028 -0.027  0.827
     ------------------------ ATOM    4 ------------------------
     Tr[ns(  4)] (up, down, total) =   4.90861  4.29999  9.20859
     Atomic magnetic moment for atom   4 =   0.60862
     SPIN  1
     eigenvalues:
       0.960  0.966  0.992  0.995  0.996
     eigenvectors (columns):
       0.189  0.585 -0.147  0.639  0.439
      -0.518 -0.000  0.719  0.000  0.464
      -0.542  0.521 -0.446 -0.478  0.085
       0.328 -0.338 -0.254 -0.369  0.760
       0.542  0.521  0.446 -0.478 -0.085
     occupation matrix ns (before diag.):
       0.984  0.004 -0.005  0.004 -0.012
       0.004  0.984 -0.009  0.007  0.009
      -0.005 -0.009  0.976  0.011  0.003
       0.004  0.007  0.011  0.988 -0.001
      -0.012  0.009  0.003 -0.001  0.976
     SPIN  2
     eigenvalues:
       0.637  0.809  0.920  0.956  0.978
     eigenvectors (columns):
      -0.457 -0.312 -0.736 -0.193  0.340
      -0.000  0.698  0.000  0.119  0.706
      -0.601  0.250  0.373 -0.647 -0.137
       0.264 -0.540  0.425 -0.333  0.589
      -0.601 -0.250  0.373  0.647  0.137
     occupation matrix ns (before diag.):
       0.858  0.037 -0.067  0.029 -0.088
       0.037  0.895 -0.028  0.064  0.028
      -0.067 -0.028  0.827  0.063 -0.111
       0.029  0.064  0.063  0.892  0.027
      -0.088  0.028 -0.111  0.027  0.827

     Number of occupied Hubbard levels =   37.3940

     negative rho (up, down):  9.200E-06 3.160E-06

     HUBBARD ENERGY =    0.2218  (Ry)

     total cpu time spent up to now is     1458.0 secs

     total energy              =   -1118.08114129 Ry
     estimated scf accuracy    <       1.10678414 Ry

     total magnetization       =     2.04 Bohr mag/cell
     absolute magnetization    =     2.55 Bohr mag/cell

     iteration # 10     ecut=   180.00 Ry     beta= 0.10
     Davidson diagonalization with overlap

---- Real-time Memory Report at c_bands before calling an iterative solver
         25744 MiB given to the printing process from OS
          1146 MiB allocation reported by mallinfo(arena+hblkhd)
        473793 MiB available memory on the node where the printing process lives
------------------
     ethr =  5.51E-04,  avg # of iterations =  1.0

     =================== HUBBARD OCCUPATIONS ===================
     ------------------------ ATOM    1 ------------------------
     Tr[ns(  1)] (up, down, total) =   4.96206  3.93375  8.89580
     Atomic magnetic moment for atom   1 =   1.02831
     SPIN  1
     eigenvalues:
       0.988  0.988  0.991  0.997  0.997
     eigenvectors (columns):
       0.499  0.231 -0.000 -0.377 -0.746
      -0.062 -0.679  0.577 -0.448 -0.025
      -0.558  0.393  0.577  0.246 -0.375
      -0.231  0.499 -0.000 -0.746  0.377
      -0.619 -0.286 -0.577 -0.202 -0.401
     occupation matrix ns (before diag.):
       0.994  0.002  0.002  0.000  0.003
       0.002  0.991  0.000  0.003 -0.000
       0.002  0.000  0.991 -0.003 -0.000
       0.000  0.003 -0.003  0.994 -0.000
       0.003 -0.000 -0.000 -0.000  0.991
     SPIN  2
     eigenvalues:
       0.591  0.591  0.892  0.892  0.967
     eigenvectors (columns):
       0.580 -0.726  0.294 -0.225  0.000
       0.110  0.281  0.700  0.291 -0.577
      -0.299 -0.045 -0.098 -0.752 -0.577
      -0.726 -0.580  0.225  0.294 -0.000
      -0.189  0.236  0.603 -0.461  0.577
     occupation matrix ns (before diag.):
       0.632  0.042  0.042  0.000  0.084
       0.042  0.890  0.039  0.073 -0.039
       0.042  0.039  0.890 -0.073 -0.039
       0.000  0.073 -0.073  0.632 -0.000
       0.084 -0.039 -0.039 -0.000  0.890
     ------------------------ ATOM    2 ------------------------
     Tr[ns(  2)] (up, down, total) =   4.93473  4.52921  9.46394
     Atomic magnetic moment for atom   2 =   0.40552
     SPIN  1
     eigenvalues:
       0.973  0.975  0.993  0.997  0.997
     eigenvectors (columns):
      -0.430  0.000  0.205 -0.879  0.000
      -0.517  0.537 -0.459  0.146  0.460
      -0.517 -0.537 -0.459  0.146 -0.460
       0.000  0.651 -0.000 -0.000 -0.759
       0.529 -0.000 -0.732 -0.429  0.000
     occupation matrix ns (before diag.):
       0.992 -0.005 -0.005  0.000  0.006
      -0.005  0.983 -0.001 -0.008  0.005
      -0.005 -0.001  0.983  0.008  0.005
       0.000 -0.008  0.008  0.988 -0.000
       0.006  0.005  0.005 -0.000  0.988
     SPIN  2
     eigenvalues:
       0.675  0.891  0.982  0.987  0.994
     eigenvectors (columns):
      -0.000 -0.516  0.253 -0.000  0.818
       0.596 -0.369 -0.601  0.381 -0.047
      -0.596 -0.369 -0.601 -0.381 -0.047
       0.538  0.000 -0.000 -0.843 -0.000
       0.000  0.679 -0.462 -0.000  0.571
     occupation matrix ns (before diag.):
       0.966 -0.018 -0.018  0.000  0.037
      -0.018  0.861  0.096 -0.100  0.022
      -0.018  0.096  0.861  0.100  0.022
       0.000 -0.100  0.100  0.896 -0.000
       0.037  0.022  0.022 -0.000  0.944
     ------------------------ ATOM    3 ------------------------
     Tr[ns(  3)] (up, down, total) =   4.93473  4.52921  9.46394
     Atomic magnetic moment for atom   3 =   0.40552
     SPIN  1
     eigenvalues:
       0.973  0.975  0.993  0.997  0.997
     eigenvectors (columns):
      -0.215 -0.564  0.102  0.440  0.657
       0.517 -0.537  0.459  0.146 -0.460
       0.529 -0.000 -0.732  0.429 -0.000
       0.372 -0.325 -0.177 -0.762  0.380
      -0.517 -0.537 -0.459 -0.146 -0.460
     occupation matrix ns (before diag.):
       0.989 -0.004  0.003 -0.002 -0.009
      -0.004  0.983 -0.005 -0.008  0.001
       0.003 -0.005  0.988 -0.005  0.005
      -0.002 -0.008 -0.005  0.991  0.000
      -0.009  0.001  0.005  0.000  0.983
     SPIN  2
     eigenvalues:
       0.675  0.891  0.982  0.987  0.994
     eigenvectors (columns):
       0.466  0.258  0.127  0.730  0.409
       0.596 -0.369  0.601 -0.381  0.047
      -0.000 -0.679 -0.462  0.000  0.571
       0.269 -0.447 -0.219  0.421 -0.709
       0.596  0.369 -0.601 -0.381 -0.047
     occupation matrix ns (before diag.):
       0.914 -0.078  0.019 -0.030 -0.096
      -0.078  0.861 -0.022 -0.065 -0.096
       0.019 -0.022  0.944 -0.032  0.022
      -0.030 -0.065 -0.032  0.949 -0.035
      -0.096 -0.096  0.022 -0.035  0.861
     ------------------------ ATOM    4 ------------------------
     Tr[ns(  4)] (up, down, total) =   4.93473  4.52921  9.46394
     Atomic magnetic moment for atom   4 =   0.40552
     SPIN  1
     eigenvalues:
       0.973  0.975  0.993  0.997  0.997
     eigenvectors (columns):
      -0.215 -0.564  0.102  0.440  0.657
       0.529  0.000 -0.732  0.429 -0.000
       0.517 -0.537  0.459  0.146 -0.460
      -0.372  0.325  0.177  0.762 -0.380
      -0.517 -0.537 -0.459 -0.146 -0.460
     occupation matrix ns (before diag.):
       0.989  0.003 -0.004  0.002 -0.009
       0.003  0.988 -0.005  0.005  0.005
      -0.004 -0.005  0.983  0.008  0.001
       0.002  0.005  0.008  0.991 -0.000
      -0.009  0.005  0.001 -0.000  0.983
     SPIN  2
     eigenvalues:
       0.675  0.891  0.982  0.987  0.994
     eigenvectors (columns):
       0.466  0.258 -0.127 -0.730  0.409
       0.000 -0.679  0.462 -0.000  0.571
       0.596 -0.369 -0.601  0.381  0.047
      -0.269  0.447 -0.219  0.421  0.709
       0.596  0.369  0.601  0.381 -0.047
     occupation matrix ns (before diag.):
       0.914  0.019 -0.078  0.030 -0.096
       0.019  0.944 -0.022  0.032  0.022
      -0.078 -0.022  0.861  0.065 -0.096
       0.030  0.032  0.065  0.949  0.035
      -0.096  0.022 -0.096  0.035  0.861

     Number of occupied Hubbard levels =   37.2876

     negative rho (up, down):  1.101E-06 1.303E-06

     HUBBARD ENERGY =    0.1928  (Ry)

     total cpu time spent up to now is     1554.1 secs

     total energy              =   -1118.14434281 Ry
     estimated scf accuracy    <       0.04871015 Ry

     total magnetization       =     2.39 Bohr mag/cell
     absolute magnetization    =     2.76 Bohr mag/cell

     iteration # 11     ecut=   180.00 Ry     beta= 0.10
     Davidson diagonalization with overlap

---- Real-time Memory Report at c_bands before calling an iterative solver
         25744 MiB given to the printing process from OS
          1146 MiB allocation reported by mallinfo(arena+hblkhd)
        473731 MiB available memory on the node where the printing process lives
------------------
     ethr =  6.77E-05,  avg # of iterations =  2.0

     =================== HUBBARD OCCUPATIONS ===================
     ------------------------ ATOM    1 ------------------------
     Tr[ns(  1)] (up, down, total) =   4.97032  4.29987  9.27019
     Atomic magnetic moment for atom   1 =   0.67045
     SPIN  1
     eigenvalues:
       0.991  0.991  0.994  0.998  0.998
     eigenvectors (columns):
       0.487  0.221 -0.000 -0.386 -0.752
      -0.067 -0.687  0.577 -0.436 -0.021
      -0.561  0.401  0.577  0.236 -0.367
      -0.221  0.487 -0.000 -0.752  0.386
      -0.628 -0.285 -0.577 -0.199 -0.388
     occupation matrix ns (before diag.):
       0.996  0.001  0.001  0.000  0.002
       0.001  0.993  0.000  0.002 -0.000
       0.001  0.000  0.993 -0.002 -0.000
       0.000  0.002 -0.002  0.996 -0.000
       0.002 -0.000 -0.000 -0.000  0.993
     SPIN  2
     eigenvalues:
       0.725  0.725  0.935  0.935  0.979
     eigenvectors (columns):
       0.602  0.456  0.414 -0.508  0.000
       0.067 -0.531  0.609  0.099 -0.577
      -0.493  0.208 -0.219 -0.576 -0.577
      -0.456  0.602  0.508  0.414 -0.000
      -0.427 -0.323  0.390 -0.478  0.577
     occupation matrix ns (before diag.):
       0.816  0.042  0.042  0.000  0.085
       0.042  0.890  0.045  0.074 -0.045
       0.042  0.045  0.890 -0.074 -0.045
       0.000  0.074 -0.074  0.816 -0.000
       0.085 -0.045 -0.045 -0.000  0.890
     ------------------------ ATOM    2 ------------------------
     Tr[ns(  2)] (up, down, total) =   4.92629  4.49590  9.42219
     Atomic magnetic moment for atom   2 =   0.43039
     SPIN  1
     eigenvalues:
       0.969  0.971  0.993  0.997  0.997
     eigenvectors (columns):
      -0.429  0.000  0.213 -0.878  0.000
      -0.516  0.545 -0.463  0.139  0.451
      -0.516 -0.545 -0.463  0.139 -0.451
       0.000  0.637 -0.000 -0.000 -0.770
       0.533 -0.000 -0.725 -0.436  0.000
     occupation matrix ns (before diag.):
       0.991 -0.006 -0.006  0.000  0.007
      -0.006  0.981 -0.001 -0.009  0.006
      -0.006 -0.001  0.981  0.009  0.006
       0.000 -0.009  0.009  0.986 -0.000
       0.007  0.006  0.006 -0.000  0.987
     SPIN  2
     eigenvalues:
       0.660  0.870  0.983  0.988  0.994
     eigenvectors (columns):
       0.000 -0.531  0.263  0.000  0.806
      -0.601 -0.354 -0.611 -0.372 -0.034
       0.601 -0.354 -0.611  0.372 -0.034
      -0.527  0.000 -0.000  0.850 -0.000
      -0.000  0.684 -0.428  0.000  0.591
     occupation matrix ns (before diag.):
       0.958 -0.022 -0.022  0.000  0.046
      -0.022  0.853  0.102 -0.104  0.027
      -0.022  0.102  0.853  0.104  0.027
       0.000 -0.104  0.104  0.897 -0.000
       0.046  0.027  0.027 -0.000  0.934
[...]
     eigenvectors (columns):
      -0.609  0.391 -0.000  0.444  0.529
      -0.027 -0.563  0.577  0.582 -0.103
       0.501  0.258  0.577 -0.202  0.555
       0.391  0.609  0.000  0.529 -0.444
       0.474 -0.305 -0.577  0.380  0.453
     occupation matrix ns (before diag.):
       0.994  0.001  0.001  0.000  0.001
       0.001  0.994 -0.000  0.001  0.000
       0.001 -0.000  0.994 -0.001  0.000
       0.000  0.001 -0.001  0.994 -0.000
       0.001  0.000  0.000 -0.000  0.994
     SPIN  2
     eigenvalues:
       0.468  0.468  0.987  0.991  0.991
     eigenvectors (columns):
      -0.352 -0.106  0.000 -0.186 -0.911
       0.173  0.739  0.577 -0.285 -0.095
       0.553 -0.520  0.577  0.225 -0.199
       0.106 -0.352 -0.000 -0.911  0.186
       0.727  0.219 -0.577 -0.060 -0.294
     occupation matrix ns (before diag.):
       0.920  0.073  0.073  0.000  0.146
       0.073  0.688  0.149  0.126 -0.149
       0.073  0.149  0.688 -0.126 -0.149
       0.000  0.126 -0.126  0.920 -0.000
       0.146 -0.149 -0.149 -0.000  0.688
     ------------------------ ATOM    2 ------------------------
     Tr[ns(  2)] (up, down, total) =   4.92097  4.58737  9.50835
     Atomic magnetic moment for atom   2 =   0.33360
     SPIN  1
     eigenvalues:
       0.967  0.970  0.991  0.996  0.996
     eigenvectors (columns):
      -0.437  0.000  0.214 -0.874  0.000
      -0.530  0.534 -0.440  0.157  0.464
      -0.530 -0.534 -0.440  0.157 -0.464
       0.000  0.656 -0.000 -0.000 -0.755
       0.497 -0.000 -0.753 -0.432  0.000
     occupation matrix ns (before diag.):
       0.990 -0.006 -0.006  0.000  0.007
      -0.006  0.980 -0.002 -0.009  0.006
      -0.006 -0.002  0.980  0.009  0.006
       0.000 -0.009  0.009  0.985 -0.000
       0.007  0.006  0.006 -0.000  0.986
     SPIN  2
     eigenvalues:
       0.725  0.884  0.987  0.995  0.996
     eigenvectors (columns):
      -0.000 -0.423  0.163 -0.000 -0.891
       0.601 -0.423 -0.558  0.373  0.099
      -0.601 -0.423 -0.558 -0.373  0.099
       0.527  0.000 -0.000 -0.850  0.000
       0.000  0.681 -0.592 -0.000 -0.432
     occupation matrix ns (before diag.):
       0.975 -0.019 -0.019  0.000  0.033
      -0.019  0.875  0.075 -0.086  0.029
      -0.019  0.075  0.875  0.086  0.029
       0.000 -0.086  0.086  0.920 -0.000
       0.033  0.029  0.029 -0.000  0.941
     ------------------------ ATOM    3 ------------------------
     Tr[ns(  3)] (up, down, total) =   4.92097  4.58737  9.50835
     Atomic magnetic moment for atom   3 =   0.33360
     SPIN  1
     eigenvalues:
       0.967  0.970  0.991  0.996  0.996
     eigenvectors (columns):
      -0.218 -0.568  0.107  0.437  0.654
       0.530 -0.534  0.440  0.157 -0.464
       0.497 -0.000 -0.753  0.432 -0.000
       0.378 -0.328 -0.185 -0.757  0.378
      -0.530 -0.534 -0.440 -0.157 -0.464
     occupation matrix ns (before diag.):
       0.986 -0.005  0.004 -0.002 -0.011
      -0.005  0.980 -0.006 -0.010  0.002
       0.004 -0.006  0.986 -0.006  0.006
      -0.002 -0.010 -0.006  0.989  0.001
      -0.011  0.002  0.006  0.001  0.980
     SPIN  2
     eigenvalues:
       0.725  0.884  0.987  0.995  0.996
     eigenvectors (columns):
       0.457  0.212  0.082  0.736  0.446
       0.601 -0.423  0.558 -0.373  0.099
      -0.000 -0.681 -0.592  0.000  0.432
       0.264 -0.367 -0.141  0.425 -0.772
       0.601  0.423 -0.558 -0.373 -0.099
     occupation matrix ns (before diag.):
       0.934 -0.064  0.016 -0.024 -0.084
      -0.064  0.875 -0.029 -0.059 -0.075
       0.016 -0.029  0.941 -0.028  0.029
      -0.024 -0.059 -0.028  0.962 -0.026
      -0.084 -0.075  0.029 -0.026  0.875
     ------------------------ ATOM    4 ------------------------
     Tr[ns(  4)] (up, down, total) =   4.92097  4.58737  9.50835
     Atomic magnetic moment for atom   4 =   0.33360
     SPIN  1
     eigenvalues:
       0.967  0.970  0.991  0.996  0.996
     eigenvectors (columns):
      -0.218 -0.568  0.107  0.437  0.654
       0.497  0.000 -0.753  0.432 -0.000
       0.530 -0.534  0.440  0.157 -0.464
      -0.378  0.328  0.185  0.757 -0.378
      -0.530 -0.534 -0.440 -0.157 -0.464
     occupation matrix ns (before diag.):
       0.986  0.004 -0.005  0.002 -0.011
       0.004  0.986 -0.006  0.006  0.006
      -0.005 -0.006  0.980  0.010  0.002
       0.002  0.006  0.010  0.989 -0.001
      -0.011  0.006  0.002 -0.001  0.980
     SPIN  2
     eigenvalues:
       0.725  0.884  0.987  0.995  0.996
     eigenvectors (columns):
       0.457  0.212 -0.082 -0.736  0.446
       0.000 -0.681  0.592 -0.000  0.432
       0.601 -0.423 -0.558  0.373  0.099
      -0.264  0.367 -0.141  0.425  0.772
       0.601  0.423  0.558  0.373 -0.099
     occupation matrix ns (before diag.):
       0.934  0.016 -0.064  0.024 -0.084
       0.016  0.941 -0.029  0.028  0.029
      -0.064 -0.029  0.875  0.059 -0.075
       0.024  0.028  0.059  0.962  0.026
      -0.084  0.029 -0.075  0.026  0.875

     Number of occupied Hubbard levels =   37.4004

     HUBBARD ENERGY =    0.1530  (Ry)

     total cpu time spent up to now is     5330.9 secs

     total energy              =   -1118.16322608 Ry
     estimated scf accuracy    <          2.4E-10 Ry

     total magnetization       =     2.15 Bohr mag/cell
     absolute magnetization    =     2.40 Bohr mag/cell

     iteration # 46     ecut=   180.00 Ry     beta= 0.10
     Davidson diagonalization with overlap

---- Real-time Memory Report at c_bands before calling an iterative solver
         25748 MiB given to the printing process from OS
          1146 MiB allocation reported by mallinfo(arena+hblkhd)
        473914 MiB available memory on the node where the printing process lives
------------------
     ethr =  3.39E-13,  avg # of iterations =  2.0

     =================== HUBBARD OCCUPATIONS ===================
     ------------------------ ATOM    1 ------------------------
     Tr[ns(  1)] (up, down, total) =   4.97009  3.90528  8.87537
     Atomic magnetic moment for atom   1 =   1.06481
     SPIN  1
     eigenvalues:
       0.993  0.993  0.993  0.996  0.996
     eigenvectors (columns):
      -0.600  0.404 -0.000  0.410  0.555
      -0.039 -0.562  0.577  0.587 -0.066
       0.506  0.248  0.577 -0.236  0.542
       0.404  0.600  0.000  0.555 -0.410
       0.468 -0.314 -0.577  0.351  0.475
     occupation matrix ns (before diag.):
       0.994  0.001  0.001  0.000  0.001
       0.001  0.994 -0.000  0.001  0.000
       0.001 -0.000  0.994 -0.001  0.000
       0.000  0.001 -0.001  0.994 -0.000
       0.001  0.000  0.000 -0.000  0.994
     SPIN  2
     eigenvalues:
       0.468  0.468  0.987  0.991  0.991
     eigenvectors (columns):
      -0.354 -0.098  0.000 -0.229 -0.901
       0.190  0.735  0.577 -0.289 -0.081
       0.542 -0.532  0.577  0.215 -0.210
       0.098 -0.354 -0.000 -0.901  0.229
       0.732  0.203 -0.577 -0.074 -0.291
     occupation matrix ns (before diag.):
       0.920  0.073  0.073  0.000  0.146
       0.073  0.688  0.149  0.126 -0.149
       0.073  0.149  0.688 -0.126 -0.149
       0.000  0.126 -0.126  0.920 -0.000
       0.146 -0.149 -0.149 -0.000  0.688
     ------------------------ ATOM    2 ------------------------
     Tr[ns(  2)] (up, down, total) =   4.92098  4.58737  9.50835
     Atomic magnetic moment for atom   2 =   0.33360
     SPIN  1
     eigenvalues:
       0.967  0.970  0.991  0.996  0.996
     eigenvectors (columns):
      -0.437  0.000  0.214 -0.874  0.000
      -0.530  0.534 -0.440  0.157  0.464
      -0.530 -0.534 -0.440  0.157 -0.464
       0.000  0.656 -0.000 -0.000 -0.755
       0.497 -0.000 -0.753 -0.432  0.000
     occupation matrix ns (before diag.):
       0.990 -0.006 -0.006  0.000  0.007
      -0.006  0.980 -0.002 -0.009  0.006
      -0.006 -0.002  0.980  0.009  0.006
       0.000 -0.009  0.009  0.985 -0.000
       0.007  0.006  0.006 -0.000  0.986
     SPIN  2
     eigenvalues:
       0.725  0.884  0.987  0.995  0.996
     eigenvectors (columns):
      -0.000 -0.423  0.163 -0.000 -0.891
       0.601 -0.423 -0.558  0.373  0.099
      -0.601 -0.423 -0.558 -0.373  0.099
       0.527  0.000 -0.000 -0.850  0.000
       0.000  0.681 -0.592 -0.000 -0.432
     occupation matrix ns (before diag.):
       0.975 -0.019 -0.019  0.000  0.033
      -0.019  0.875  0.075 -0.086  0.029
      -0.019  0.075  0.875  0.086  0.029
       0.000 -0.086  0.086  0.920 -0.000
       0.033  0.029  0.029 -0.000  0.941
     ------------------------ ATOM    3 ------------------------
     Tr[ns(  3)] (up, down, total) =   4.92098  4.58737  9.50835
     Atomic magnetic moment for atom   3 =   0.33360
     SPIN  1
     eigenvalues:
       0.967  0.970  0.991  0.996  0.996
     eigenvectors (columns):
      -0.218 -0.568  0.107  0.437  0.654
       0.530 -0.534  0.440  0.157 -0.464
       0.497 -0.000 -0.753  0.432 -0.000
       0.378 -0.328 -0.185 -0.757  0.378
      -0.530 -0.534 -0.440 -0.157 -0.464
     occupation matrix ns (before diag.):
       0.986 -0.005  0.004 -0.002 -0.011
      -0.005  0.980 -0.006 -0.010  0.002
       0.004 -0.006  0.986 -0.006  0.006
      -0.002 -0.010 -0.006  0.989  0.001
      -0.011  0.002  0.006  0.001  0.980
     SPIN  2
     eigenvalues:
       0.725  0.884  0.987  0.995  0.996
     eigenvectors (columns):
       0.457  0.212  0.082  0.736  0.446
       0.601 -0.423  0.558 -0.373  0.099
      -0.000 -0.681 -0.592  0.000  0.432
       0.264 -0.367 -0.141  0.425 -0.772
       0.601  0.423 -0.558 -0.373 -0.099
     occupation matrix ns (before diag.):
       0.934 -0.064  0.016 -0.024 -0.084
      -0.064  0.875 -0.029 -0.059 -0.075
       0.016 -0.029  0.941 -0.028  0.029
      -0.024 -0.059 -0.028  0.962 -0.026
      -0.084 -0.075  0.029 -0.026  0.875
     ------------------------ ATOM    4 ------------------------
     Tr[ns(  4)] (up, down, total) =   4.92098  4.58737  9.50835
     Atomic magnetic moment for atom   4 =   0.33360
     SPIN  1
     eigenvalues:
       0.967  0.970  0.991  0.996  0.996
     eigenvectors (columns):
      -0.218 -0.568  0.107  0.437  0.654
       0.497  0.000 -0.753  0.432 -0.000
       0.530 -0.534  0.440  0.157 -0.464
      -0.378  0.328  0.185  0.757 -0.378
      -0.530 -0.534 -0.440 -0.157 -0.464
     occupation matrix ns (before diag.):
       0.986  0.004 -0.005  0.002 -0.011
       0.004  0.986 -0.006  0.006  0.006
      -0.005 -0.006  0.980  0.010  0.002
       0.002  0.006  0.010  0.989 -0.001
      -0.011  0.006  0.002 -0.001  0.980
     SPIN  2
     eigenvalues:
       0.725  0.884  0.987  0.995  0.996
     eigenvectors (columns):
       0.457  0.212 -0.082 -0.736  0.446
       0.000 -0.681  0.592 -0.000  0.432
       0.601 -0.423 -0.558  0.373  0.099
      -0.264  0.367 -0.141  0.425  0.772
       0.601  0.423  0.558  0.373 -0.099
     occupation matrix ns (before diag.):
       0.934  0.016 -0.064  0.024 -0.084
       0.016  0.941 -0.029  0.028  0.029
      -0.064 -0.029  0.875  0.059 -0.075
       0.024  0.028  0.059  0.962  0.026
      -0.084  0.029 -0.075  0.026  0.875

     Number of occupied Hubbard levels =   37.4004

     HUBBARD ENERGY =    0.1530  (Ry)

     Magnetic moment per site  (integrated on atomic sphere of radius R)
     atom   1 (R=0.035)  charge= 16.7040  magn=  1.0804
     atom   2 (R=0.035)  charge= 15.7815  magn=  0.3253
     atom   3 (R=0.035)  charge= 15.7815  magn=  0.3253
     atom   4 (R=0.035)  charge= 15.7815  magn=  0.3253

     total cpu time spent up to now is     5438.4 secs

     End of self-consistent calculation

 ------ SPIN UP ------------


          k = 0.0000 0.0000 0.0000 (****** PWs)   bands (ev):

  -107.4667-100.5881-100.5759-100.5759 -68.0180 -67.8562 -67.8562 -55.1721
   -54.9959 -54.9959 -54.8084 -54.8084 -54.7497 -54.6204 -54.5927 -54.5927
    -9.4643  -8.3343  -8.1776  -8.1775  -7.4949  -7.4949  -7.2381  -6.9847
    -6.9847  -6.8147  -6.0497  -5.9563  -5.9563  -5.9253  -5.9253  -5.8614
    -5.8614  -5.7238  -5.6937  -5.6937  -5.3223  -3.7217  -3.7217  -3.6603
    -1.1046  -0.5715  -0.5715  -0.5557  -0.1252  -0.1252   0.0455   0.1361
     0.1613   0.1618

     occupation numbers 
     1.0000   1.0000   1.0000   1.0000   1.0000   1.0000   1.0000   1.0000
     1.0000   1.0000   1.0000   1.0000   1.0000   1.0000   1.0000   1.0000
     1.0000   1.0000   1.0000   1.0000   1.0000   1.0000   1.0000   1.0000
     1.0000   1.0000   1.0000   0.9999   0.9999   0.9999   0.9999   0.9999
     0.9999   0.9997   0.9996   0.9996   0.9969   0.0291   0.0291   0.0206
     0.0000   0.0000   0.0000   0.0000   0.0000   0.0000   0.0000   0.0000
     0.0000   0.0000

 ------ SPIN DOWN ----------


          k = 0.0000 0.0000 0.0000 (****** PWs)   bands (ev):

  -106.3737-100.4033-100.3890-100.3890 -66.7923 -66.6894 -66.6894 -54.9025
   -54.7260 -54.7260 -54.5506 -54.5506 -54.4895 -54.4694 -54.4379 -54.4379
    -9.3667  -8.0437  -7.2694  -7.2694  -6.9689  -6.7984  -6.7984  -6.7254
    -6.0432  -6.0432  -5.8070  -5.8070  -5.6475  -5.6475  -5.5818  -5.4552
    -5.3536  -5.3536  -4.2038  -4.2038  -4.1435  -3.4418  -3.4418  -3.4367
    -1.0328  -0.4924  -0.4924  -0.4919  -0.0792  -0.0792   0.0477   0.1453
     0.1669   0.1677

     occupation numbers 
     1.0000   1.0000   1.0000   1.0000   1.0000   1.0000   1.0000   1.0000
     1.0000   1.0000   1.0000   1.0000   1.0000   1.0000   1.0000   1.0000
     1.0000   1.0000   1.0000   1.0000   1.0000   1.0000   1.0000   1.0000
     1.0000   1.0000   0.9998   0.9998   0.9995   0.9995   0.9993   0.9986
     0.9974   0.9974   0.3298   0.3298   0.2575   0.0059   0.0059   0.0057
     0.0000   0.0000   0.0000   0.0000   0.0000   0.0000   0.0000   0.0000
     0.0000   0.0000

     the Fermi energy is    -4.3260 ev

!    total energy              =   -1118.16322608 Ry
     estimated scf accuracy    <          8.1E-11 Ry
     smearing contrib. (-TS)   =      -0.03054371 Ry
     internal energy E=F+TS    =   -1118.13268238 Ry

     The total energy is F=E-TS. E is the sum of the following terms:
     one-electron contribution =   -2873.29546297 Ry
     hartree contribution      =    1420.61278647 Ry
     xc contribution           =    -185.11032322 Ry
     ewald contribution        =     519.50734989 Ry
     Hubbard energy            =       0.15296746 Ry

     total magnetization       =     2.15 Bohr mag/cell
     absolute magnetization    =     2.40 Bohr mag/cell

     convergence has been achieved in  46 iterations

     Forces acting on atoms (cartesian axes, Ry/au):

     atom    1 type  1   force =     0.05331203    0.05331203    0.05331203
     atom    2 type  2   force =    -0.04879023   -0.04879023    0.04426842
     atom    3 type  2   force =     0.04426842   -0.04879023   -0.04879023
     atom    4 type  2   force =    -0.04879023    0.04426842   -0.04879023
     The non-local contrib.  to forces
     atom    1 type  1   force =    -0.54141147   -0.54141147   -0.54141147
     atom    2 type  2   force =     0.16115801    0.16115801   -0.25165609
     atom    3 type  2   force =    -0.25165609    0.16115801    0.16115801
     atom    4 type  2   force =     0.16115801   -0.25165609    0.16115801
     The ionic contribution  to forces
     atom    1 type  1   force =   -35.26535072  -35.26535072  -35.26535072
     atom    2 type  2   force =    35.26535072   35.26535072  -35.26535072
     atom    3 type  2   force =   -35.26535072   35.26535072   35.26535072
     atom    4 type  2   force =    35.26535072  -35.26535072   35.26535072
     The local contribution  to forces
     atom    1 type  1   force =    35.84628460   35.84628352   35.84628319
     atom    2 type  2   force =   -35.46150547  -35.46151650   35.54494226
     atom    3 type  2   force =    35.54494409  -35.46151575  -35.46150781
     atom    4 type  2   force =   -35.46150549   35.54494408  -35.46150871
     The core correction contribution to forces
     atom    1 type  1   force =     0.01633085    0.01633091    0.01633083
     atom    2 type  2   force =    -0.00000102   -0.00000106    0.00845727
     atom    3 type  2   force =     0.00845727   -0.00000104   -0.00000101
     atom    4 type  2   force =    -0.00000093    0.00845718   -0.00000095
     The Hubbard contrib.    to forces
     atom    1 type  1   force =    -0.00253928   -0.00253928   -0.00253928
     atom    2 type  2   force =    -0.01379324   -0.01379324    0.00787254
     atom    3 type  2   force =     0.00787254   -0.01379324   -0.01379324
     atom    4 type  2   force =    -0.01379324    0.00787254   -0.01379324
     The SCF correction term to forces
     atom    1 type  1   force =    -0.00000167   -0.00000028   -0.00000030
     atom    2 type  2   force =     0.00000051    0.00001236    0.00000404
     atom    3 type  2   force =     0.00000226    0.00001158    0.00000309
     atom    4 type  2   force =     0.00000138    0.00000078    0.00000480

     Total force =     0.169377     Total SCF correction =     0.000019

     Writing all to output data dir ./pwscf.save/ :
     XML data file, charge density, pseudopotentials, collected wavefunctions

     init_run     :   1553.79s CPU     71.81s WALL (       1 calls)
     electrons    : 156884.98s CPU   5368.65s WALL (       1 calls)
     forces       :    501.51s CPU     44.42s WALL (       1 calls)

     Called by init_run:
     wfcinit      :   1048.40s CPU     42.58s WALL (       1 calls)
     wfcinit:wfcr :   1032.11s CPU     33.54s WALL (       2 calls)
     potinit      :    200.44s CPU      9.97s WALL (       1 calls)
     hinit0       :    292.56s CPU      6.73s WALL (       1 calls)

     Called by electrons:
     c_bands      : 106688.76s CPU   3974.50s WALL (      46 calls)
     sum_band     :  40328.23s CPU    814.64s WALL (      46 calls)
     v_of_rho     :   8908.96s CPU    413.52s WALL (      47 calls)
     v_h          :   1038.65s CPU     31.42s WALL (      47 calls)
     v_xc         :   8036.13s CPU    389.95s WALL (      48 calls)
     mix_rho      :   1080.17s CPU    146.54s WALL (      46 calls)

     Called by c_bands:
     init_us_2    :    110.84s CPU    119.75s WALL (     192 calls)
     regterg      : 105423.55s CPU   3887.23s WALL (      94 calls)

     Called by sum_band:
     sum_band:wei :      0.01s CPU      0.00s WALL (      46 calls)
     sum_band:loo :  38496.42s CPU    731.40s WALL (      46 calls)
     sum_band:buf :     92.80s CPU      8.48s WALL (      92 calls)
     sum_band:ini :     53.79s CPU     57.03s WALL (      92 calls)

     Called by *egterg:
     rdiaghg      :   1211.78s CPU      6.02s WALL (     357 calls)
     regterg:over :    147.56s CPU    158.26s WALL (     265 calls)
     regterg:upda :    497.59s CPU    131.53s WALL (     265 calls)
     regterg:last :    469.77s CPU    148.31s WALL (     161 calls)
     h_psi        : 102392.17s CPU   3346.65s WALL (     361 calls)
     g_psi        :    968.35s CPU      5.37s WALL (     265 calls)

     Called by h_psi:
     h_psi:calbec :    154.22s CPU    162.96s WALL (     361 calls)
     vloc_psi     : 100875.06s CPU   2796.89s WALL (     361 calls)
     add_vuspsi   :    181.75s CPU    182.47s WALL (     361 calls)
     vhpsi        :    177.97s CPU    189.42s WALL (     361 calls)

     General routines
     calbec       :    236.58s CPU    248.32s WALL (     924 calls)
     fft          :   7630.23s CPU    244.85s WALL (     624 calls)
     ffts         :    692.56s CPU     21.04s WALL (      46 calls)
     fftw         : 109955.53s CPU   2585.49s WALL (   13368 calls)

     Parallel routines

     Hubbard U routines
     new_ns       :     21.58s CPU     24.15s WALL (      46 calls)
     vhpsi        :    177.97s CPU    189.42s WALL (     361 calls)
     force_hub    :     39.37s CPU     24.39s WALL (       1 calls)
                                        0.00s GPU  (       1 calls)

     PWSCF        :   1d20h 9m CPU      1h31m WALL


   This run was terminated on:  11:23:45   2Jul2025            

=------------------------------------------------------------------------------=
   JOB DONE.
=------------------------------------------------------------------------------=
