
     Program PWSCF v.7.0 starts on 11Mar2022 at 14:30:43 

     This program is part of the open-source Quantum ESPRESSO suite
     for quantum simulation of materials; please cite
         "P. Giannozzi et al., J. Phys.:Condens. Matter 21 395502 (2009);
         "P. Giannozzi et al., J. Phys.:Condens. Matter 29 465901 (2017);
         "P. Giannozzi et al., J. Chem. Phys. 152 154105 (2020);
          URL http://www.quantum-espresso.org", 
     in publications or presentations arising from this work. More details at
     http://www.quantum-espresso.org/quote

     Parallel version (MPI & OpenMP), running on     512 processor cores
     Number of MPI processes:               128
     Threads/MPI process:                     4

     MPI processes distributed on     8 nodes
     R & G space division:  proc/nbgrp/npool/nimage =     128
     91741 MiB available memory on the printing compute node when the environment starts
 
     Reading input from LLZO_ecut85Ry.scf.in

     Current dimensions of program PWSCF are:
     Max number of different atomic species (ntypx) = 10
     Max number of k-points (npk) =  40000
     Max angular momentum in pseudopotentials (lmaxx) =  4

     gamma-point specific algorithms are used
     Found identity + (  0.5000  0.5000  0.5000) symmetry
     This is a supercell, fractional translations are disabled
     Message from routine setup:
     using ibrav=0 with symmetry is DISCOURAGED, use correct ibrav instead

     Subspace diagonalization in iterative solution of the eigenvalue problem:
     one sub-group per band group will be used
     scalapack distributed-memory algorithm (size of sub-group: 11* 11 procs)

 
     Parallelization info
     --------------------
     sticks:   dense  smooth     PW     G-vecs:    dense   smooth      PW
     Min         128     128     32                12152    12152    1516
     Max         130     130     34                12182    12182    1530
     Sum       16613   16613   4165              1557881  1557881  194819
 
     Using Slab Decomposition
 


     bravais-lattice index     =            0
     lattice parameter (alat)  =      24.7911  a.u.
     unit-cell volume          =   14715.3804 (a.u.)^3
     number of atoms/cell      =          192
     number of atomic types    =            4
     number of electrons       =      1200.00
     number of Kohn-Sham states=          720
     kinetic-energy cutoff     =      85.0000  Ry
     charge density cutoff     =     340.0000  Ry
     scf convergence threshold =      1.0E-06
     mixing beta               =       0.2000
     number of iterations used =            8  plain     mixing
     Exchange-correlation= PBE
                           (   1   4   3   4   0   0   0)

     celldm(1)=  24.791128  celldm(2)=   0.000000  celldm(3)=   0.000000
     celldm(4)=   0.000000  celldm(5)=   0.000000  celldm(6)=   0.000000

     crystal axes: (cart. coord. in units of alat)
               a(1) = (   1.000000   0.000000   0.000000 )  
               a(2) = (   0.000000   1.000000   0.000000 )  
               a(3) = (   0.000000   0.000000   0.965790 )  

     reciprocal axes: (cart. coord. in units 2 pi/alat)
               b(1) = (  1.000000  0.000000  0.000000 )  
               b(2) = (  0.000000  1.000000  0.000000 )  
               b(3) = (  0.000000  0.000000  1.035422 )  


     PseudoPot. # 1 for Li read from file:
     ./Li.upf
     MD5 check sum: dbcf0ea72988e720c8c712b432d51b0d
     Pseudo is Norm-conserving, Zval =  3.0
     Generated using ONCVPSP code by D. R. Hamann
     Using radial grid of 1944 points,  4 beta functions with: 
                l(1) =   0
                l(2) =   0
                l(3) =   1
                l(4) =   1

     PseudoPot. # 2 for O  read from file:
     ./O.upf
     MD5 check sum: 3e3f909f7470e8921608ab6b1f57bbae
     Pseudo is Norm-conserving + core correction, Zval =  6.0
     Generated using ONCVPSP code by D. R. Hamann
     Using radial grid of  936 points,  5 beta functions with: 
                l(1) =   0
                l(2) =   0
                l(3) =   1
                l(4) =   1
                l(5) =   2

     PseudoPot. # 3 for La read from file:
     ./La.upf
     MD5 check sum: cd9f961d044315b77468ddb00b57bfe4
     Pseudo is Norm-conserving + core correction, Zval = 11.0
     Generated using ONCVPSP code by D. R. Hamann
     Using radial grid of 1812 points,  8 beta functions with: 
                l(1) =   0
                l(2) =   0
                l(3) =   1
                l(4) =   1
                l(5) =   2
                l(6) =   2
                l(7) =   3
                l(8) =   3

     PseudoPot. # 4 for Zr read from file:
     ./Zr.upf
     MD5 check sum: 8ea2969ae37cb4187a0232e4a563b421
     Pseudo is Norm-conserving + core correction, Zval = 12.0
     Generated using ONCVPSP code by D. R. Hamann
     Using radial grid of 1622 points,  6 beta functions with: 
                l(1) =   0
                l(2) =   0
                l(3) =   1
                l(4) =   1
                l(5) =   2
                l(6) =   2

     atomic species   valence    mass     pseudopotential
        Li             3.00     9.00000     Li( 1.00)
        O              6.00    16.00000     O ( 1.00)
        La            11.00   138.00000     La( 1.00)
        Zr            12.00    91.24000     Zr( 1.00)

      2 Sym. Ops., with inversion, found



   Cartesian axes

     site n.     atom                  positions (alat units)
         1           La  tau(   1) = (   0.5000000   0.7500000   0.6036186  )
         2           La  tau(   2) = (   0.5000000   0.7500000   0.1207237  )
         3           La  tau(   3) = (   0.0000000   0.7500000   0.8450661  )
         4           La  tau(   4) = (   0.0000000   0.7500000   0.3621712  )
         5           La  tau(   5) = (   0.5000000   0.2500000   0.3621712  )
         6           La  tau(   6) = (   0.5000000   0.2500000   0.8450661  )
         7           La  tau(   7) = (   0.0000000   0.2500000   0.1207237  )
         8           La  tau(   8) = (   0.0000000   0.2500000   0.6036186  )
         9           La  tau(   9) = (   0.2500000   0.8773000   0.4828949  )
        10           La  tau(  10) = (   0.7500000   0.8773000   0.0000000  )
        11           La  tau(  11) = (   0.1273000   0.5000000   0.7243424  )
        12           La  tau(  12) = (   0.8727000   0.5000000   0.2414475  )
        13           La  tau(  13) = (   0.7500000   0.1227000   0.4828949  )
        14           La  tau(  14) = (   0.2500000   0.1227000   0.0000000  )
        15           La  tau(  15) = (   0.2500000   0.6227000   0.0000000  )
        16           La  tau(  16) = (   0.7500000   0.6227000   0.4828949  )
        17           La  tau(  17) = (   0.1273000   0.0000000   0.2414475  )
        18           La  tau(  18) = (   0.8727000   0.0000000   0.7243424  )
        19           La  tau(  19) = (   0.7500000   0.3773000   0.0000000  )
        20           La  tau(  20) = (   0.2500000   0.3773000   0.4828949  )
        21           La  tau(  21) = (   0.6273000   0.0000000   0.2414475  )
        22           La  tau(  22) = (   0.3727000   0.0000000   0.7243424  )
        23           La  tau(  23) = (   0.6273000   0.5000000   0.7243424  )
        24           La  tau(  24) = (   0.3727000   0.5000000   0.2414475  )
        25           Zr  tau(  25) = (   0.2500000   0.7500000   0.7243424  )
        26           Zr  tau(  26) = (   0.7500000   0.7500000   0.2414475  )
        27           Zr  tau(  27) = (   0.0000000   0.5000000   0.0000000  )
        28           Zr  tau(  28) = (   0.0000000   0.5000000   0.4828949  )
        29           Zr  tau(  29) = (   0.7500000   0.2500000   0.2414475  )
        30           Zr  tau(  30) = (   0.2500000   0.2500000   0.7243424  )
        31           Zr  tau(  31) = (   0.2500000   0.7500000   0.2414475  )
        32           Zr  tau(  32) = (   0.7500000   0.7500000   0.7243424  )
        33           Zr  tau(  33) = (   0.0000000   0.0000000   0.4828949  )
        34           Zr  tau(  34) = (   0.0000000   0.0000000   0.0000000  )
        35           Zr  tau(  35) = (   0.7500000   0.2500000   0.7243424  )
        36           Zr  tau(  36) = (   0.2500000   0.2500000   0.2414475  )
        37           Zr  tau(  37) = (   0.5000000   0.0000000   0.4828949  )
        38           Zr  tau(  38) = (   0.5000000   0.0000000   0.0000000  )
        39           Zr  tau(  39) = (   0.5000000   0.5000000   0.0000000  )
        40           Zr  tau(  40) = (   0.5000000   0.5000000   0.4828949  )
        41           Li  tau(  41) = (   0.5000000   0.7500000   0.3621712  )
        42           Li  tau(  42) = (   0.5000000   0.7500000   0.8450661  )
        43           Li  tau(  43) = (   0.0000000   0.7500000   0.6036186  )
        44           Li  tau(  44) = (   0.0000000   0.7500000   0.1207237  )
        45           Li  tau(  45) = (   0.5000000   0.2500000   0.6036186  )
        46           Li  tau(  46) = (   0.5000000   0.2500000   0.1207237  )
        47           Li  tau(  47) = (   0.0000000   0.2500000   0.3621712  )
        48           Li  tau(  48) = (   0.0000000   0.2500000   0.8450661  )
        49           Li  tau(  49) = (   0.6774000   0.9274000   0.6036186  )
        50           Li  tau(  50) = (   0.3226000   0.9274000   0.1207237  )
        51           Li  tau(  51) = (   0.1774000   0.9274000   0.8450661  )
        52           Li  tau(  52) = (   0.8226000   0.9274000   0.3621712  )
        53           Li  tau(  53) = (   0.3226000   0.0726000   0.3621712  )
        54           Li  tau(  54) = (   0.6774000   0.0726000   0.8450661  )
        55           Li  tau(  55) = (   0.8226000   0.0726000   0.1207237  )
        56           Li  tau(  56) = (   0.1774000   0.0726000   0.6036186  )
        57           Li  tau(  57) = (   0.6774000   0.5726000   0.1207237  )
        58           Li  tau(  58) = (   0.3226000   0.5726000   0.6036186  )
        59           Li  tau(  59) = (   0.1774000   0.5726000   0.3621712  )
        60           Li  tau(  60) = (   0.8226000   0.5726000   0.8450661  )
        61           Li  tau(  61) = (   0.3226000   0.4274000   0.8450661  )
        62           Li  tau(  62) = (   0.6774000   0.4274000   0.3621712  )
        63           Li  tau(  63) = (   0.8226000   0.4274000   0.6036186  )
        64           Li  tau(  64) = (   0.1774000   0.4274000   0.1207237  )
        65           Li  tau(  65) = (   0.3370000   0.8300000   0.9127680  )
        66           Li  tau(  66) = (   0.6630000   0.8300000   0.4298730  )
        67           Li  tau(  67) = (   0.0800000   0.5870000   0.1884256  )
        68           Li  tau(  68) = (   0.9200000   0.5870000   0.6713205  )
        69           Li  tau(  69) = (   0.6630000   0.1700000   0.0530219  )
        70           Li  tau(  70) = (   0.3370000   0.1700000   0.5359168  )
        71           Li  tau(  71) = (   0.9200000   0.4130000   0.7773642  )
        72           Li  tau(  72) = (   0.0800000   0.4130000   0.2944693  )
        73           Li  tau(  73) = (   0.3370000   0.6700000   0.4298730  )
        74           Li  tau(  74) = (   0.6630000   0.6700000   0.9127680  )
        75           Li  tau(  75) = (   0.0800000   0.9130000   0.6713205  )
        76           Li  tau(  76) = (   0.9200000   0.9130000   0.1884256  )
        77           Li  tau(  77) = (   0.6630000   0.3300000   0.5359168  )
        78           Li  tau(  78) = (   0.3370000   0.3300000   0.0530219  )
        79           Li  tau(  79) = (   0.9200000   0.0870000   0.2944693  )
        80           Li  tau(  80) = (   0.0800000   0.0870000   0.7773642  )
        81           Li  tau(  81) = (   0.8370000   0.3300000   0.4298730  )
        82           Li  tau(  82) = (   0.1630000   0.3300000   0.9127680  )
        83           Li  tau(  83) = (   0.5800000   0.0870000   0.6713205  )
        84           Li  tau(  84) = (   0.4200000   0.0870000   0.1884256  )
        85           Li  tau(  85) = (   0.1630000   0.6700000   0.5359168  )
        86           Li  tau(  86) = (   0.8370000   0.6700000   0.0530219  )
        87           Li  tau(  87) = (   0.4200000   0.9130000   0.2944693  )
        88           Li  tau(  88) = (   0.5800000   0.9130000   0.7773642  )
        89           Li  tau(  89) = (   0.8370000   0.1700000   0.9127680  )
        90           Li  tau(  90) = (   0.1630000   0.1700000   0.4298730  )
        91           Li  tau(  91) = (   0.5800000   0.4130000   0.1884256  )
        92           Li  tau(  92) = (   0.4200000   0.4130000   0.6713205  )
        93           Li  tau(  93) = (   0.1630000   0.8300000   0.0530219  )
        94           Li  tau(  94) = (   0.8370000   0.8300000   0.5359168  )
        95           Li  tau(  95) = (   0.4200000   0.5870000   0.7773642  )
        96           Li  tau(  96) = (   0.5800000   0.5870000   0.2944693  )
        97           O   tau(  97) = (   0.3051000   0.7160000   0.5778320  )
        98           O   tau(  98) = (   0.6949000   0.7160000   0.0949371  )
        99           O   tau(  99) = (   0.9660000   0.5551000   0.8192795  )
       100           O   tau( 100) = (   0.0340000   0.5551000   0.3363846  )
       101           O   tau( 101) = (   0.6949000   0.2840000   0.3879578  )
       102           O   tau( 102) = (   0.3051000   0.2840000   0.8708527  )
       103           O   tau( 103) = (   0.0340000   0.4449000   0.1465103  )
       104           O   tau( 104) = (   0.9660000   0.4449000   0.6294052  )
       105           O   tau( 105) = (   0.3051000   0.7840000   0.0949371  )
       106           O   tau( 106) = (   0.6949000   0.7840000   0.5778320  )
       107           O   tau( 107) = (   0.9660000   0.9449000   0.3363846  )
       108           O   tau( 108) = (   0.0340000   0.9449000   0.8192795  )
       109           O   tau( 109) = (   0.6949000   0.2160000   0.8708527  )
       110           O   tau( 110) = (   0.3051000   0.2160000   0.3879578  )
       111           O   tau( 111) = (   0.0340000   0.0551000   0.6294052  )
       112           O   tau( 112) = (   0.9660000   0.0551000   0.1465103  )
       113           O   tau( 113) = (   0.8051000   0.2160000   0.0949371  )
       114           O   tau( 114) = (   0.1949000   0.2160000   0.5778320  )
       115           O   tau( 115) = (   0.4660000   0.0551000   0.3363846  )
       116           O   tau( 116) = (   0.5340000   0.0551000   0.8192795  )
       117           O   tau( 117) = (   0.1949000   0.7840000   0.8708527  )
       118           O   tau( 118) = (   0.8051000   0.7840000   0.3879578  )
       119           O   tau( 119) = (   0.5340000   0.9449000   0.6294052  )
       120           O   tau( 120) = (   0.4660000   0.9449000   0.1465103  )
       121           O   tau( 121) = (   0.8051000   0.2840000   0.5778320  )
       122           O   tau( 122) = (   0.1949000   0.2840000   0.0949371  )
       123           O   tau( 123) = (   0.4660000   0.4449000   0.8192795  )
       124           O   tau( 124) = (   0.5340000   0.4449000   0.3363846  )
       125           O   tau( 125) = (   0.1949000   0.7160000   0.3879578  )
       126           O   tau( 126) = (   0.8051000   0.7160000   0.8708527  )
       127           O   tau( 127) = (   0.5340000   0.5551000   0.1465103  )
       128           O   tau( 128) = (   0.4660000   0.5551000   0.6294052  )
       129           O   tau( 129) = (   0.1019000   0.8043000   0.2091901  )
       130           O   tau( 130) = (   0.8981000   0.8043000   0.6920850  )
       131           O   tau( 131) = (   0.0543000   0.3519000   0.4506375  )
       132           O   tau( 132) = (   0.9457000   0.3519000   0.9335324  )
       133           O   tau( 133) = (   0.8981000   0.1957000   0.7565997  )
       134           O   tau( 134) = (   0.1019000   0.1957000   0.2737048  )
       135           O   tau( 135) = (   0.9457000   0.6481000   0.5151523  )
       136           O   tau( 136) = (   0.0543000   0.6481000   0.0322574  )
       137           O   tau( 137) = (   0.1019000   0.6957000   0.6920850  )
       138           O   tau( 138) = (   0.8981000   0.6957000   0.2091901  )
       139           O   tau( 139) = (   0.0543000   0.1481000   0.9335324  )
       140           O   tau( 140) = (   0.9457000   0.1481000   0.4506375  )
       141           O   tau( 141) = (   0.8981000   0.3043000   0.2737048  )
       142           O   tau( 142) = (   0.1019000   0.3043000   0.7565997  )
       143           O   tau( 143) = (   0.9457000   0.8519000   0.0322574  )
       144           O   tau( 144) = (   0.0543000   0.8519000   0.5151523  )
       145           O   tau( 145) = (   0.6019000   0.3043000   0.6920850  )
       146           O   tau( 146) = (   0.3981000   0.3043000   0.2091901  )
       147           O   tau( 147) = (   0.5543000   0.8519000   0.9335324  )
       148           O   tau( 148) = (   0.4457000   0.8519000   0.4506375  )
       149           O   tau( 149) = (   0.3981000   0.6957000   0.2737048  )
       150           O   tau( 150) = (   0.6019000   0.6957000   0.7565997  )
       151           O   tau( 151) = (   0.4457000   0.1481000   0.0322574  )
       152           O   tau( 152) = (   0.5543000   0.1481000   0.5151523  )
       153           O   tau( 153) = (   0.6019000   0.1957000   0.2091901  )
       154           O   tau( 154) = (   0.3981000   0.1957000   0.6920850  )
       155           O   tau( 155) = (   0.5543000   0.6481000   0.4506375  )
       156           O   tau( 156) = (   0.4457000   0.6481000   0.9335324  )
       157           O   tau( 157) = (   0.3981000   0.8043000   0.7565997  )
       158           O   tau( 158) = (   0.6019000   0.8043000   0.2737048  )
       159           O   tau( 159) = (   0.4457000   0.3519000   0.5151523  )
       160           O   tau( 160) = (   0.5543000   0.3519000   0.0322574  )
       161           O   tau( 161) = (   0.2781000   0.8991000   0.2932138  )
       162           O   tau( 162) = (   0.7219000   0.8991000   0.7761087  )
       163           O   tau( 163) = (   0.1491000   0.5281000   0.5346612  )
       164           O   tau( 164) = (   0.8509000   0.5281000   0.0517663  )
       165           O   tau( 165) = (   0.7219000   0.1009000   0.6725760  )
       166           O   tau( 166) = (   0.2781000   0.1009000   0.1896811  )
       167           O   tau( 167) = (   0.8509000   0.4719000   0.4311286  )
       168           O   tau( 168) = (   0.1491000   0.4719000   0.9140235  )
       169           O   tau( 169) = (   0.2781000   0.6009000   0.7761087  )
       170           O   tau( 170) = (   0.7219000   0.6009000   0.2932138  )
       171           O   tau( 171) = (   0.1491000   0.9719000   0.0517663  )
       172           O   tau( 172) = (   0.8509000   0.9719000   0.5346612  )
       173           O   tau( 173) = (   0.7219000   0.3991000   0.1896811  )
       174           O   tau( 174) = (   0.2781000   0.3991000   0.6725760  )
       175           O   tau( 175) = (   0.8509000   0.0281000   0.9140235  )
       176           O   tau( 176) = (   0.1491000   0.0281000   0.4311286  )
       177           O   tau( 177) = (   0.7781000   0.3991000   0.7761087  )
       178           O   tau( 178) = (   0.2219000   0.3991000   0.2932138  )
       179           O   tau( 179) = (   0.6491000   0.0281000   0.0517663  )
       180           O   tau( 180) = (   0.3509000   0.0281000   0.5346612  )
       181           O   tau( 181) = (   0.2219000   0.6009000   0.1896811  )
       182           O   tau( 182) = (   0.7781000   0.6009000   0.6725760  )
       183           O   tau( 183) = (   0.3509000   0.9719000   0.9140235  )
       184           O   tau( 184) = (   0.6491000   0.9719000   0.4311286  )
       185           O   tau( 185) = (   0.7781000   0.1009000   0.2932138  )
       186           O   tau( 186) = (   0.2219000   0.1009000   0.7761087  )
       187           O   tau( 187) = (   0.6491000   0.4719000   0.5346612  )
       188           O   tau( 188) = (   0.3509000   0.4719000   0.0517663  )
       189           O   tau( 189) = (   0.2219000   0.8991000   0.6725760  )
       190           O   tau( 190) = (   0.7781000   0.8991000   0.1896811  )
       191           O   tau( 191) = (   0.3509000   0.5281000   0.4311286  )
       192           O   tau( 192) = (   0.6491000   0.5281000   0.9140235  )

     number of k points=     1  Fermi-Dirac smearing, width (Ry)=  0.0032
                       cart. coord. in units 2pi/alat
        k(    1) = (   0.0000000   0.0000000   0.0000000), wk =   2.0000000

     Dense  grid:   778941 G-vectors     FFT dimensions: ( 150, 150, 144)

     Estimated max dynamical RAM per process >     109.55 MB

     Estimated total dynamical RAM >      13.69 GB

     Initial potential from superposition of free atoms

     starting charge    1199.4929, renormalised to    1200.0000
     Starting wfcs are  896 randomized atomic wfcs

     total cpu time spent up to now is        5.2 secs

     Self-consistent Calculation

     iteration #  1     ecut=    85.00 Ry     beta= 0.20
     Davidson diagonalization with overlap
     ethr =  1.00E-02,  avg # of iterations =  3.0

     total cpu time spent up to now is       11.7 secs

     total energy              =   -7308.08015213 Ry
     estimated scf accuracy    <      51.14790603 Ry

     iteration #  2     ecut=    85.00 Ry     beta= 0.20
     Davidson diagonalization with overlap
     ethr =  4.26E-03,  avg # of iterations =  2.0

     total cpu time spent up to now is       17.5 secs

     total energy              =   -7308.14090199 Ry
     estimated scf accuracy    <       9.36433420 Ry

     iteration #  3     ecut=    85.00 Ry     beta= 0.20
     Davidson diagonalization with overlap
     c_bands:  5 eigenvalues not converged
     ethr =  7.80E-04,  avg # of iterations = 20.0

     total cpu time spent up to now is       34.3 secs

     total energy              =   -7310.56043170 Ry
     estimated scf accuracy    <       1.20001359 Ry

     iteration #  4     ecut=    85.00 Ry     beta= 0.20
     Davidson diagonalization with overlap
     ethr =  1.00E-04,  avg # of iterations = 26.0

     total cpu time spent up to now is       62.4 secs

     total energy              =   -7311.14792754 Ry
     estimated scf accuracy    <       0.57241314 Ry

     iteration #  5     ecut=    85.00 Ry     beta= 0.20
     Davidson diagonalization with overlap
     ethr =  4.77E-05,  avg # of iterations =  2.0

     total cpu time spent up to now is       67.5 secs

     total energy              =   -7311.14524763 Ry
     estimated scf accuracy    <       0.15178920 Ry

     iteration #  6     ecut=    85.00 Ry     beta= 0.20
     Davidson diagonalization with overlap
     ethr =  1.26E-05,  avg # of iterations = 22.0

     total cpu time spent up to now is       91.0 secs

     total energy              =   -7311.17574542 Ry
     estimated scf accuracy    <       0.00910288 Ry

     iteration #  7     ecut=    85.00 Ry     beta= 0.20
     Davidson diagonalization with overlap
     ethr =  7.59E-07,  avg # of iterations = 82.0

     total cpu time spent up to now is      151.3 secs

     total energy              =   -7311.17877565 Ry
     estimated scf accuracy    <       0.00163285 Ry

     iteration #  8     ecut=    85.00 Ry     beta= 0.20
     Davidson diagonalization with overlap
     ethr =  1.36E-07,  avg # of iterations =  2.0

     total cpu time spent up to now is      157.1 secs

     total energy              =   -7311.17906327 Ry
     estimated scf accuracy    <       0.00028879 Ry

     iteration #  9     ecut=    85.00 Ry     beta= 0.20
     Davidson diagonalization with overlap
     ethr =  2.41E-08,  avg # of iterations =  4.0

     total cpu time spent up to now is      165.2 secs

     total energy              =   -7311.17914508 Ry
     estimated scf accuracy    <       0.00010766 Ry

     iteration # 10     ecut=    85.00 Ry     beta= 0.20
     Davidson diagonalization with overlap
     ethr =  8.97E-09,  avg # of iterations =  3.0

     total cpu time spent up to now is      171.9 secs

     total energy              =   -7311.17914846 Ry
     estimated scf accuracy    <       0.00006714 Ry

     iteration # 11     ecut=    85.00 Ry     beta= 0.20
     Davidson diagonalization with overlap
     ethr =  5.60E-09,  avg # of iterations =  4.0

     total cpu time spent up to now is      178.9 secs

     total energy              =   -7311.17916207 Ry
     estimated scf accuracy    <       0.00000198 Ry

     iteration # 12     ecut=    85.00 Ry     beta= 0.20
     Davidson diagonalization with overlap
     ethr =  1.65E-10,  avg # of iterations =  7.0

     total cpu time spent up to now is      190.4 secs

     total energy              =   -7311.17916280 Ry
     estimated scf accuracy    <       0.00000654 Ry

     iteration # 13     ecut=    85.00 Ry     beta= 0.20
     Davidson diagonalization with overlap
     ethr =  1.65E-10,  avg # of iterations =  6.0

     total cpu time spent up to now is      198.8 secs

     End of self-consistent calculation

          k = 0.0000 0.0000 0.0000 ( 97410 PWs)   bands (ev):

   -38.5952 -38.5951 -38.5951 -38.5951 -38.5951 -38.5951 -38.5951 -38.5951
   -38.5951 -38.5951 -38.5951 -38.5951 -38.5951 -38.5951 -38.5951 -38.5950
   -35.1730 -35.1729 -35.1729 -35.1728 -35.1711 -35.1711 -35.1710 -35.1710
   -35.1710 -35.1710 -35.1709 -35.1709 -35.1692 -35.1691 -35.1691 -35.1690
   -34.9565 -34.9558 -34.9558 -34.9555 -34.9546 -34.9545 -34.9544 -34.9544
   -34.9543 -34.9542 -34.9541 -34.9540 -34.9533 -34.9526 -34.9526 -34.9525
   -34.9415 -34.9413 -34.9411 -34.9410 -34.9409 -34.9409 -34.9408 -34.9408
   -34.9408 -34.9408 -34.9407 -34.9406 -34.9405 -34.9405 -34.9405 -34.9404
   -33.8103 -33.8103 -33.8103 -33.8102 -33.8102 -33.8102 -33.8102 -33.8102
   -21.5903 -21.5865 -21.5805 -21.5805 -21.5803 -21.5803 -21.5764 -21.5744
   -21.5069 -21.5069 -21.4951 -21.4920 -21.4750 -21.4750 -21.4723 -21.4723
   -21.4686 -21.4686 -21.4683 -21.4682 -21.4406 -21.4399 -21.4399 -21.4393
   -16.9382 -16.9381 -16.9380 -16.9380 -16.9372 -16.9372 -16.9368 -16.9367
   -16.9365 -16.9363 -16.9363 -16.9361 -16.9361 -16.9354 -16.9354 -16.9340
   -16.8994 -16.8994 -16.8994 -16.8994 -16.8984 -16.8984 -16.8974 -16.8973
   -16.8972 -16.8941 -16.8941 -16.8930 -16.8930 -16.8923 -16.8923 -16.8871
   -16.8512 -16.8512 -16.8512 -16.8511 -16.8501 -16.8496 -16.8489 -16.8489
   -16.8488 -16.8488 -16.8481 -16.8481 -16.8464 -16.8459 -16.8458 -16.8414
    -8.6317  -8.6317  -8.4794  -8.4794  -8.4721  -8.4268  -8.4267  -8.4212
    -8.4212  -8.4092  -8.3463  -8.3463  -8.3026  -8.3026  -8.2933  -8.2540
    -8.2269  -8.2269  -8.1708  -8.1708  -8.1316  -8.1316  -8.0212  -8.0212
    -8.0186  -8.0185  -8.0132  -8.0132  -7.9919  -7.9792  -7.9756  -7.9566
    -7.9390  -7.9104  -7.8828  -7.8828  -7.8808  -7.8695  -7.8695  -7.8594
    -7.8594  -7.8462  -7.8462  -7.8365  -7.8365  -7.8307  -7.8307  -7.7845
    -7.7725  -7.7594  -7.7594  -7.6661  -7.6661  -7.6339  -7.5966  -7.5782
    -7.5600  -7.5600  -7.5370  -7.5370  -7.5241  -7.5241  -7.5128  -7.5128
    -7.5033  -7.4632  -7.4632  -7.4426  -7.3981  -7.3981  -7.3724  -7.3677
    -7.3677  -7.3495  -7.3495  -7.2885  -7.2885  -7.2322  -7.2322  -7.2312
    -7.2043  -7.1927  -7.1869  -7.1869  -7.1394  -7.1394  -7.1384  -7.0669
    -7.0669  -7.0591  -7.0591  -7.0218  -7.0218  -6.9922  -6.9922  -6.8931
    -5.1811  -5.1811  -5.1736  -5.1736  -5.1530  -5.1530  -5.1510  -5.1510
    -5.1508  -5.1508  -5.1180  -5.1180  -5.0985  -5.0894  -5.0894  -5.0642
    -5.0642  -5.0538  -5.0242  -4.9887  -4.9887  -4.9425  -4.9425  -4.9413
    -4.9413  -4.9409  -4.9311  -4.9311  -4.9309  -4.9309  -4.8698  -4.8698
    -4.8675  -4.7855  -4.7794  -4.7794  -4.7415  -4.7075  -4.6879  -4.6822
    -4.6773  -4.6773  -4.6499  -4.6498  -4.5882  -4.5747  -4.5737  -4.5215
    -4.5215  -4.5213  -4.5213  -4.4969  -4.4969  -4.4957  -4.4956  -4.4333
    -4.4333  -4.3951  -4.3951  -4.3894  -4.3799  -4.3799  -4.3711  -4.3711
    -4.3489  -4.3489  -4.3217  -4.3217  -4.2993  -4.1718  -4.1718  -4.1326
     4.5827   4.8190   4.8190   4.8849   4.8849   4.8961   4.9247   4.9394
     4.9681   4.9681   4.9974   5.0096   5.0501   5.0502   5.0627   5.0628
     5.0828   5.0828   5.1712   5.1712   5.1938   5.2295   5.2296   5.2905
     5.2905   5.3037   5.3037   5.3154   5.3154   5.3543   5.3688   5.3688
     5.3822   5.3822   5.3947   5.3947   5.4295   5.4380   5.4653   5.4653
     5.4706   5.4725   5.4725   5.4761   5.4761   5.4785   5.4785   5.4960
     5.5359   5.5359   5.5569   5.5569   5.6047   5.6051   5.6051   5.6287
     5.6420   5.6420   5.6515   5.6515   5.6558   5.6800   5.6818   5.6818
     5.6962   5.6962   5.7496   5.7726   5.7726   5.7746   5.8055   5.8055
     5.8200   5.8200   5.8350   5.8350   5.8398   5.8409   5.8409   5.8420
     5.8420   5.8495   5.8495   5.8586   5.8586   5.8630   5.8640   5.8742
     5.8742   5.8858   5.8858   5.8975   5.8975   5.9119   5.9209   5.9209
     5.9794   5.9857   5.9879   6.0023   6.0023   6.0196   6.0282   6.0583
     6.0583   6.0606   6.0864   6.0864   6.1056   6.1220   6.1299   6.1566
     6.1583   6.1583   6.2499   6.2499   6.2771   6.3211   6.3211   6.3446
     6.3446   6.3621   6.3621   6.3743   6.4121   6.4121   6.4524   6.4525
     6.4706   6.4706   6.5120   6.5120   6.5148   6.5148   6.5209   6.5383
     6.5458   6.5458   6.5529   6.5529   6.5716   6.5774   6.5780   6.5977
     6.5977   6.6521   6.6521   6.6646   6.6649   6.6650   6.7141   6.7221
     6.7221   6.7277   6.7277   6.7426   6.7426   6.8078   6.8149   6.8328
     6.8485   6.8485   6.8873   6.8873   6.8985   6.8985   6.9154   6.9154
     6.9650   6.9650   6.9779   6.9791   6.9954   7.0381   7.0382   7.0573
     7.0573   7.0762   7.0762   7.0867   7.0868   7.1460   7.1460   7.2283
     7.2334   7.2334   7.2337   7.2424   7.2424   7.2536   7.2536   7.2538
     7.2889   7.2889   7.2949   7.2950   7.3042   7.3181   7.3181   7.3388
     7.3388   7.3457   7.3457   7.3588   7.3883   7.4020   7.4045   7.4045
     7.4105   7.4113   7.4113   7.4278   7.4279   7.4516   7.4516   7.4538
     7.4538   7.4664   7.4664   7.4680   7.4680   7.4861   7.4884   7.4884
     7.5112   7.5112   7.5164   7.5356   7.5356   7.5601   7.5820   7.5820
     7.5852   7.5853   7.5853   7.6390   7.6432   7.6432   7.6436   7.6436
     7.6597   7.6597   7.7004   7.7004   7.7025   7.7025   7.7175   7.7481
     7.7481   7.7502   7.7719   7.7719   7.7848   7.7856   7.7856   7.7918
     7.7918   7.8299   7.8299   7.8488   7.8743   7.8794   7.8795   7.8811
     7.8876   7.8876   7.9111   7.9350   7.9397   7.9397   7.9427   7.9427
     7.9535   7.9535   7.9720   7.9720   7.9735   7.9735   7.9744   7.9744
     7.9929   7.9929   8.0456   8.0568   8.0649   8.0694   8.0854   8.0854
    12.4946  12.6575  12.6826  12.6826  12.7288  12.7316  12.7316  12.7369
    12.7793  12.7793  12.8024  12.8024  12.8134  12.8628  12.8628  12.8732
    12.8732  12.8791  12.8791  12.8843  12.8844  12.9084  12.9084  12.9099
    12.9099  12.9386  12.9517  12.9782  12.9782  13.0220  13.0232  13.0232
    13.0236  13.0236  13.0278  13.0560  13.0560  13.0642  13.0642  13.0955
    13.0955  13.1190  13.1190  13.1215  13.1659  13.1778  13.2396  13.2640
    13.2640  13.3266  13.3266  13.3335  13.3336  13.3422  13.3531  13.3532
    13.3533  13.3535  13.3616  13.3618  13.3623  13.3874  13.3876  13.3912
    13.3915  13.4004  13.4042  13.4045  13.4095  13.4128  13.4130  13.4231
    13.4233  13.4342  13.4363  13.4444  13.4454  13.4461  13.4465  13.4470
    13.4472  13.4475  13.4480  13.4500  13.4529  13.4535  13.4555  13.4613
    13.4655  13.4700  13.4704  13.4721  13.4752  13.4763  13.4778  13.4808
    13.4866  13.4933  13.4936  13.4947  13.5041  13.5051  13.5064  13.5138
    13.5146  13.5194  13.5258  13.5265  13.5351  13.5357  13.5431  13.5455
    13.5486  13.5516  13.5647  13.5674  13.5728  13.5736  13.5761  13.5816

     the Fermi energy is    10.6975 ev

!    total energy              =   -7311.17916313 Ry
     estimated scf accuracy    <       0.00000066 Ry
     smearing contrib. (-TS)   =       0.00000000 Ry
     internal energy E=F+TS    =   -7311.17916313 Ry

     The total energy is F=E-TS. E is the sum of the following terms:
     one-electron contribution =   -1518.03763726 Ry
     hartree contribution      =    1393.60242357 Ry
     xc contribution           =   -1727.89361453 Ry
     ewald contribution        =   -5458.85033492 Ry

     convergence has been achieved in  13 iterations

     Forces acting on atoms (cartesian axes, Ry/au):

     atom    1 type  3   force =    -0.00000032   -0.00000069    0.00000207
     atom    2 type  3   force =     0.00000069    0.00000028   -0.00000000
     atom    3 type  3   force =    -0.00000027   -0.00000049   -0.00000072
     atom    4 type  3   force =     0.00000184    0.00000058    0.00000186
     atom    5 type  3   force =     0.00000032    0.00000069   -0.00000207
     atom    6 type  3   force =    -0.00000069   -0.00000028    0.00000000
     atom    7 type  3   force =     0.00000027    0.00000049    0.00000072
     atom    8 type  3   force =    -0.00000184   -0.00000058   -0.00000186
     atom    9 type  3   force =    -0.00000103    0.00879859    0.00000035
     atom   10 type  3   force =    -0.00000031    0.00880016   -0.00000086
     atom   11 type  3   force =     0.00880365    0.00000145    0.00000020
     atom   12 type  3   force =    -0.00880365   -0.00000145   -0.00000020
     atom   13 type  3   force =     0.00000103   -0.00879859   -0.00000035
     atom   14 type  3   force =     0.00000031   -0.00880016    0.00000086
     atom   15 type  3   force =     0.00000020   -0.00880007   -0.00000093
     atom   16 type  3   force =     0.00000014   -0.00880163    0.00000030
     atom   17 type  3   force =     0.00880152   -0.00000029   -0.00000029
     atom   18 type  3   force =    -0.00880152    0.00000029    0.00000029
     atom   19 type  3   force =    -0.00000020    0.00880007    0.00000093
     atom   20 type  3   force =    -0.00000014    0.00880163   -0.00000030
     atom   21 type  3   force =     0.00880202    0.00000013   -0.00000057
     atom   22 type  3   force =    -0.00880202   -0.00000013    0.00000057
     atom   23 type  3   force =     0.00880243    0.00000133   -0.00000048
     atom   24 type  3   force =    -0.00880243   -0.00000133    0.00000048
     atom   25 type  4   force =     0.00000100   -0.00000053    0.00000043
     atom   26 type  4   force =    -0.00000198    0.00000059    0.00000040
     atom   27 type  4   force =     0.00000000    0.00000000    0.00000000
     atom   28 type  4   force =     0.00000000    0.00000000    0.00000000
     atom   29 type  4   force =    -0.00000100    0.00000053   -0.00000043
     atom   30 type  4   force =     0.00000198   -0.00000059   -0.00000040
     atom   31 type  4   force =    -0.00000091    0.00000023   -0.00000035
     atom   32 type  4   force =    -0.00000101   -0.00000059    0.00000153
     atom   33 type  4   force =     0.00000000    0.00000000    0.00000000
     atom   34 type  4   force =     0.00000000    0.00000000    0.00000000
     atom   35 type  4   force =     0.00000091   -0.00000023    0.00000035
     atom   36 type  4   force =     0.00000101    0.00000059   -0.00000153
     atom   37 type  4   force =     0.00000000    0.00000000    0.00000000
     atom   38 type  4   force =     0.00000000    0.00000000    0.00000000
     atom   39 type  4   force =     0.00000000    0.00000000    0.00000000
     atom   40 type  4   force =     0.00000000    0.00000000    0.00000000
     atom   41 type  1   force =     0.00000057    0.00000054   -0.00000045
     atom   42 type  1   force =     0.00000070   -0.00000047   -0.00000104
     atom   43 type  1   force =     0.00000027    0.00000060   -0.00000044
     atom   44 type  1   force =     0.00000118    0.00000029   -0.00000019
     atom   45 type  1   force =    -0.00000057   -0.00000054    0.00000045
     atom   46 type  1   force =    -0.00000070    0.00000047    0.00000104
     atom   47 type  1   force =    -0.00000027   -0.00000060    0.00000044
     atom   48 type  1   force =    -0.00000118   -0.00000029    0.00000019
     atom   49 type  1   force =     0.00299185    0.00297053    0.00000133
     atom   50 type  1   force =    -0.00299195    0.00297043    0.00000080
     atom   51 type  1   force =     0.00299235    0.00297033   -0.00000106
     atom   52 type  1   force =    -0.00299193    0.00297030   -0.00000116
     atom   53 type  1   force =    -0.00299185   -0.00297053   -0.00000133
     atom   54 type  1   force =     0.00299195   -0.00297043   -0.00000080
     atom   55 type  1   force =    -0.00299235   -0.00297033    0.00000106
     atom   56 type  1   force =     0.00299193   -0.00297030    0.00000116
     atom   57 type  1   force =     0.00299180   -0.00297058    0.00000088
     atom   58 type  1   force =    -0.00299225   -0.00297020    0.00000119
     atom   59 type  1   force =     0.00299183   -0.00296975   -0.00000077
     atom   60 type  1   force =    -0.00299183   -0.00296986   -0.00000134
     atom   61 type  1   force =    -0.00299180    0.00297058   -0.00000088
     atom   62 type  1   force =     0.00299225    0.00297020   -0.00000119
     atom   63 type  1   force =    -0.00299183    0.00296975    0.00000077
     atom   64 type  1   force =     0.00299183    0.00296986    0.00000134
     atom   65 type  1   force =     0.00030752    0.00244109   -0.00254563
     atom   66 type  1   force =    -0.00030754    0.00244070   -0.00254593
     atom   67 type  1   force =     0.00250401    0.00030228   -0.00254548
     atom   68 type  1   force =    -0.00250398    0.00030251   -0.00254526
     atom   69 type  1   force =    -0.00030752   -0.00244109    0.00254563
     atom   70 type  1   force =     0.00030754   -0.00244070    0.00254593
     atom   71 type  1   force =    -0.00250401   -0.00030228    0.00254548
     atom   72 type  1   force =     0.00250398   -0.00030251    0.00254526
     atom   73 type  1   force =     0.00030662   -0.00244106   -0.00254514
     atom   74 type  1   force =    -0.00030763   -0.00244022   -0.00254599
     atom   75 type  1   force =     0.00250360   -0.00030319   -0.00254604
     atom   76 type  1   force =    -0.00250350   -0.00030262   -0.00254559
     atom   77 type  1   force =    -0.00030662    0.00244106    0.00254514
     atom   78 type  1   force =     0.00030763    0.00244022    0.00254599
     atom   79 type  1   force =    -0.00250360    0.00030319    0.00254604
     atom   80 type  1   force =     0.00250350    0.00030262    0.00254559
     atom   81 type  1   force =     0.00030729    0.00244117   -0.00254508
     atom   82 type  1   force =    -0.00030689    0.00244063   -0.00254456
     atom   83 type  1   force =     0.00250317    0.00030267   -0.00254549
     atom   84 type  1   force =    -0.00250387    0.00030294   -0.00254570
     atom   85 type  1   force =    -0.00030729   -0.00244117    0.00254508
     atom   86 type  1   force =     0.00030689   -0.00244063    0.00254456
     atom   87 type  1   force =    -0.00250317   -0.00030267    0.00254549
     atom   88 type  1   force =     0.00250387   -0.00030294    0.00254570
     atom   89 type  1   force =     0.00030746   -0.00244051   -0.00254550
     atom   90 type  1   force =    -0.00030788   -0.00244072   -0.00254541
     atom   91 type  1   force =     0.00250369   -0.00030300   -0.00254584
     atom   92 type  1   force =    -0.00250394   -0.00030257   -0.00254560
     atom   93 type  1   force =    -0.00030746    0.00244051    0.00254550
     atom   94 type  1   force =     0.00030788    0.00244072    0.00254541
     atom   95 type  1   force =    -0.00250369    0.00030300    0.00254584
     atom   96 type  1   force =     0.00250394    0.00030257    0.00254560
     atom   97 type  2   force =    -0.00052705   -0.00579439   -0.01589713
     atom   98 type  2   force =     0.00052757   -0.00579469   -0.01589745
     atom   99 type  2   force =    -0.00573043   -0.00064917   -0.01589623
     atom  100 type  2   force =     0.00573124   -0.00064932   -0.01589616
     atom  101 type  2   force =     0.00052705    0.00579439    0.01589713
     atom  102 type  2   force =    -0.00052757    0.00579469    0.01589745
     atom  103 type  2   force =     0.00573043    0.00064917    0.01589623
     atom  104 type  2   force =    -0.00573124    0.00064932    0.01589616
     atom  105 type  2   force =    -0.00052734    0.00579516   -0.01589846
     atom  106 type  2   force =     0.00052727    0.00579440   -0.01589578
     atom  107 type  2   force =    -0.00573033    0.00064953   -0.01589659
     atom  108 type  2   force =     0.00573035    0.00064843   -0.01589603
     atom  109 type  2   force =     0.00052734   -0.00579516    0.01589846
     atom  110 type  2   force =    -0.00052727   -0.00579440    0.01589578
     atom  111 type  2   force =     0.00573033   -0.00064953    0.01589659
     atom  112 type  2   force =    -0.00573035   -0.00064843    0.01589603
     atom  113 type  2   force =    -0.00052772   -0.00579400   -0.01589797
     atom  114 type  2   force =     0.00052738   -0.00579561   -0.01589789
     atom  115 type  2   force =    -0.00573140   -0.00064927   -0.01589628
     atom  116 type  2   force =     0.00572997   -0.00064908   -0.01589576
     atom  117 type  2   force =     0.00052772    0.00579400    0.01589797
     atom  118 type  2   force =    -0.00052738    0.00579561    0.01589789
     atom  119 type  2   force =     0.00573140    0.00064927    0.01589628
     atom  120 type  2   force =    -0.00572997    0.00064908    0.01589576
     atom  121 type  2   force =    -0.00052638    0.00579684   -0.01589773
     atom  122 type  2   force =     0.00052669    0.00579668   -0.01589781
     atom  123 type  2   force =    -0.00573096    0.00064934   -0.01589406
     atom  124 type  2   force =     0.00573006    0.00064865   -0.01589661
     atom  125 type  2   force =     0.00052638   -0.00579684    0.01589773
     atom  126 type  2   force =    -0.00052669   -0.00579668    0.01589781
     atom  127 type  2   force =     0.00573096   -0.00064934    0.01589406
     atom  128 type  2   force =    -0.00573006   -0.00064865    0.01589661
     atom  129 type  2   force =     0.00026339    0.00317926   -0.00387930
     atom  130 type  2   force =    -0.00026524    0.00317818   -0.00387811
     atom  131 type  2   force =     0.00308170    0.00038544   -0.00387847
     atom  132 type  2   force =    -0.00308273    0.00038604   -0.00387855
     atom  133 type  2   force =    -0.00026339   -0.00317926    0.00387930
     atom  134 type  2   force =     0.00026524   -0.00317818    0.00387811
     atom  135 type  2   force =    -0.00308170   -0.00038544    0.00387847
     atom  136 type  2   force =     0.00308273   -0.00038604    0.00387855
     atom  137 type  2   force =     0.00026490   -0.00317630   -0.00387925
     atom  138 type  2   force =    -0.00026754   -0.00317723   -0.00387692
     atom  139 type  2   force =     0.00308181   -0.00038635   -0.00387893
     atom  140 type  2   force =    -0.00308197   -0.00038336   -0.00388031
     atom  141 type  2   force =    -0.00026490    0.00317630    0.00387925
     atom  142 type  2   force =     0.00026754    0.00317723    0.00387692
     atom  143 type  2   force =    -0.00308181    0.00038635    0.00387893
     atom  144 type  2   force =     0.00308197    0.00038336    0.00388031
     atom  145 type  2   force =     0.00026566    0.00317709   -0.00387608
     atom  146 type  2   force =    -0.00026240    0.00317853   -0.00388092
     atom  147 type  2   force =     0.00308187    0.00038544   -0.00387920
     atom  148 type  2   force =    -0.00308105    0.00038697   -0.00387845
     atom  149 type  2   force =    -0.00026566   -0.00317709    0.00387608
     atom  150 type  2   force =     0.00026240   -0.00317853    0.00388092
     atom  151 type  2   force =    -0.00308187   -0.00038544    0.00387920
     atom  152 type  2   force =     0.00308105   -0.00038697    0.00387845
     atom  153 type  2   force =     0.00026543   -0.00317720   -0.00387879
     atom  154 type  2   force =    -0.00026165   -0.00317838   -0.00387870
     atom  155 type  2   force =     0.00308185   -0.00038750   -0.00387887
     atom  156 type  2   force =    -0.00308075   -0.00038646   -0.00387799
     atom  157 type  2   force =    -0.00026543    0.00317720    0.00387879
     atom  158 type  2   force =     0.00026165    0.00317838    0.00387870
     atom  159 type  2   force =    -0.00308185    0.00038750    0.00387887
     atom  160 type  2   force =     0.00308075    0.00038646    0.00387799
     atom  161 type  2   force =     0.00125178    0.00994780    0.00062304
     atom  162 type  2   force =    -0.00125446    0.00994726    0.00062397
     atom  163 type  2   force =     0.00985985    0.00116520    0.00062349
     atom  164 type  2   force =    -0.00986001    0.00116476    0.00062314
     atom  165 type  2   force =    -0.00125178   -0.00994780   -0.00062304
     atom  166 type  2   force =     0.00125446   -0.00994726   -0.00062397
     atom  167 type  2   force =    -0.00985985   -0.00116520   -0.00062349
     atom  168 type  2   force =     0.00986001   -0.00116476   -0.00062314
     atom  169 type  2   force =     0.00125385   -0.00994772    0.00062390
     atom  170 type  2   force =    -0.00125484   -0.00994863    0.00062373
     atom  171 type  2   force =     0.00985988   -0.00116262    0.00062271
     atom  172 type  2   force =    -0.00985915   -0.00116295    0.00062323
     atom  173 type  2   force =    -0.00125385    0.00994772   -0.00062390
     atom  174 type  2   force =     0.00125484    0.00994863   -0.00062373
     atom  175 type  2   force =    -0.00985988    0.00116262   -0.00062271
     atom  176 type  2   force =     0.00985915    0.00116295   -0.00062323
     atom  177 type  2   force =     0.00125295    0.00994924    0.00062514
     atom  178 type  2   force =    -0.00125293    0.00994932    0.00062440
     atom  179 type  2   force =     0.00986001    0.00116356    0.00062337
     atom  180 type  2   force =    -0.00985869    0.00116264    0.00062407
     atom  181 type  2   force =    -0.00125295   -0.00994924   -0.00062514
     atom  182 type  2   force =     0.00125293   -0.00994932   -0.00062440
     atom  183 type  2   force =    -0.00986001   -0.00116356   -0.00062337
     atom  184 type  2   force =     0.00985869   -0.00116264   -0.00062407
     atom  185 type  2   force =     0.00125364   -0.00994685    0.00062188
     atom  186 type  2   force =    -0.00125193   -0.00994865    0.00062439
     atom  187 type  2   force =     0.00986035   -0.00116411    0.00062322
     atom  188 type  2   force =    -0.00985746   -0.00116252    0.00062284
     atom  189 type  2   force =    -0.00125364    0.00994685   -0.00062188
     atom  190 type  2   force =     0.00125193    0.00994865   -0.00062439
     atom  191 type  2   force =    -0.00986035    0.00116411   -0.00062322
     atom  192 type  2   force =     0.00985746    0.00116252   -0.00062284

     Total force =     0.122828     Total SCF correction =     0.001223


     Computing stress (Cartesian axis) and pressure

          total   stress  (Ry/bohr**3)                   (kbar)     P=       15.14
   0.00010664   0.00000000  -0.00000000           15.69        0.00       -0.00
   0.00000000   0.00010662  -0.00000000            0.00       15.68       -0.00
  -0.00000000  -0.00000000   0.00009549           -0.00       -0.00       14.05

 
     init_run     :     11.26s CPU      3.78s WALL (       1 calls)
     electrons    :    711.06s CPU    193.52s WALL (       1 calls)
     forces       :      3.12s CPU      0.83s WALL (       1 calls)
     stress       :     21.91s CPU     18.75s WALL (       1 calls)

     Called by init_run:
     wfcinit      :      9.69s CPU      2.73s WALL (       1 calls)
     potinit      :      0.32s CPU      0.09s WALL (       1 calls)
     hinit0       :      0.60s CPU      0.30s WALL (       1 calls)

     Called by electrons:
     c_bands      :    680.13s CPU    185.14s WALL (      13 calls)
     sum_band     :     27.73s CPU      7.50s WALL (      13 calls)
     v_of_rho     :      2.65s CPU      0.72s WALL (      14 calls)
     mix_rho      :      0.60s CPU      0.16s WALL (      13 calls)

     Called by c_bands:
     init_us_2    :      0.44s CPU      0.15s WALL (      27 calls)
     init_us_2:cp :      0.43s CPU      0.15s WALL (      27 calls)
     regterg      :    676.44s CPU    184.15s WALL (      19 calls)

     Called by *egterg:
     rdiaghg      :    285.63s CPU     79.23s WALL (     202 calls)
     h_psi        :    287.94s CPU     77.77s WALL (     203 calls)
     g_psi        :      0.08s CPU      0.05s WALL (     183 calls)

     Called by h_psi:
     h_psi:calbec :     25.14s CPU      6.64s WALL (     203 calls)
     vloc_psi     :    242.44s CPU     65.81s WALL (     203 calls)
     add_vuspsi   :     19.85s CPU      5.26s WALL (     203 calls)

     General routines
     calbec       :     27.05s CPU      7.13s WALL (     208 calls)
     fft          :      2.92s CPU      0.83s WALL (     131 calls)
     ffts         :      0.18s CPU      0.05s WALL (      13 calls)
     fftw         :    235.21s CPU     65.92s WALL (   45380 calls)
 
     Parallel routines
 
     PWSCF        :  12m28.53s CPU   3m38.61s WALL

 
   This run was terminated on:  14:34:21  11Mar2022            

=------------------------------------------------------------------------------=
   JOB DONE.
=------------------------------------------------------------------------------=
