
     Program PWSCF v.6.5 starts on  4Jul2021 at 15: 5:47 

     This program is part of the open-source Quantum ESPRESSO suite
     for quantum simulation of materials; please cite
         "P. Giannozzi et al., J. Phys.:Condens. Matter 21 395502 (2009);
         "P. Giannozzi et al., J. Phys.:Condens. Matter 29 465901 (2017);
          URL http://www.quantum-espresso.org", 
     in publications or presentations arising from this work. More details at
     http://www.quantum-espresso.org/quote

     Parallel version (MPI), running on   108 processors

     MPI processes distributed on     3 nodes
     R & G space division:  proc/nbgrp/npool/nimage =     108
     Reading input from WS2Ecut50.scf.in

     Current dimensions of program PWSCF are:
     Max number of different atomic species (ntypx) = 10
     Max number of k-points (npk) =  40000
     Max angular momentum in pseudopotentials (lmaxx) =  3

     gamma-point specific algorithms are used

     Subspace diagonalization in iterative solution of the eigenvalue problem:
     a serial algorithm will be used

 
     Parallelization info
     --------------------
     sticks:   dense  smooth     PW     G-vecs:    dense   smooth      PW
     Min         470     470    117                80054    80054    9994
     Max         472     472    120                80076    80076   10018
     Sum       50949   50949  12745              8647083  8647083 1080751
 


     bravais-lattice index     =            0
     lattice parameter (alat)  =      40.0000  a.u.
     unit-cell volume          =   64000.0000 (a.u.)^3
     number of atoms/cell      =           80
     number of atomic types    =            2
     number of electrons       =       640.00
     number of Kohn-Sham states=          384
     kinetic-energy cutoff     =     100.0000  Ry
     charge density cutoff     =     400.0000  Ry
     convergence threshold     =      1.0E-07
     mixing beta               =       0.2000
     number of iterations used =            8  plain     mixing
     Exchange-correlation= PBE
                           (   1   4   3   4   0   0   0)

     celldm(1)=  40.000000  celldm(2)=   0.000000  celldm(3)=   0.000000
     celldm(4)=   0.000000  celldm(5)=   0.000000  celldm(6)=   0.000000

     crystal axes: (cart. coord. in units of alat)
               a(1) = (   1.000000   0.000000   0.000000 )  
               a(2) = (   0.000000   1.000000   0.000000 )  
               a(3) = (   0.000000   0.000000   1.000000 )  

     reciprocal axes: (cart. coord. in units 2 pi/alat)
               b(1) = (  1.000000  0.000000  0.000000 )  
               b(2) = (  0.000000  1.000000  0.000000 )  
               b(3) = (  0.000000  0.000000  1.000000 )  


     PseudoPot. # 1 for W  read from file:
     ./W.upf
     MD5 check sum: cb94e439a9e4ea809831d6e90c63864e
     Pseudo is Norm-conserving + core correction, Zval = 14.0
     Generated using ONCVPSP code by D. R. Hamann
     Using radial grid of 1396 points,  8 beta functions with: 
                l(1) =   0
                l(2) =   0
                l(3) =   1
                l(4) =   1
                l(5) =   2
                l(6) =   2
                l(7) =   3
                l(8) =   3

     PseudoPot. # 2 for S  read from file:
     ./S.upf
     MD5 check sum: 6027e7704d67ae28863b2247926ce6f3
     Pseudo is Norm-conserving + core correction, Zval =  6.0
     Generated using ONCVPSP code by D. R. Hamann
     Using radial grid of 1146 points,  6 beta functions with: 
                l(1) =   0
                l(2) =   0
                l(3) =   1
                l(4) =   1
                l(5) =   2
                l(6) =   2

     atomic species   valence    mass     pseudopotential
        74            14.00   140.00000     W ( 1.00)
        16             6.00    32.00000     S ( 1.00)

     No symmetry found



   Cartesian axes

     site n.     atom                  positions (alat units)
         1           74  tau(   1) = (   0.0726355   0.2208766   0.1489952  )
         2           74  tau(   2) = (   0.0722065  -0.0390071   0.1489002  )
         3           74  tau(   3) = (  -0.0015775   0.0937223   0.1490673  )
         4           74  tau(   4) = (  -0.0002253  -0.1647870   0.1490062  )
         5           74  tau(   5) = (   0.2226696   0.2196759   0.1489594  )
         6           74  tau(   6) = (   0.1500769   0.0938914   0.1490344  )
         7           74  tau(   7) = (  -0.2227900   0.2197717   0.1489331  )
         8           74  tau(   8) = (  -0.0729282   0.2208695   0.1489511  )
         9           74  tau(   9) = (  -0.0768443  -0.0380463   0.1462007  )
        10           74  tau(  10) = (  -0.1532390   0.0938554   0.1491025  )
        11           74  tau(  11) = (   0.0727177   0.2207947  -0.1462609  )
        12           74  tau(  12) = (   0.0724044  -0.0388756  -0.1462997  )
        13           74  tau(  13) = (  -0.0005309   0.0911843  -0.1509580  )
        14           74  tau(  14) = (  -0.0001672  -0.1648378  -0.1461637  )
        15           74  tau(  15) = (   0.2227395   0.2197594  -0.1462514  )
        16           74  tau(  16) = (   0.1517828   0.0945866  -0.1461629  )
        17           74  tau(  17) = (  -0.2237313   0.2164010  -0.1511850  )
        18           74  tau(  18) = (  -0.0772016   0.2212372  -0.1487474  )
        19           74  tau(  19) = (  -0.0746219  -0.0383264  -0.1487897  )
        20           74  tau(  20) = (  -0.1516537   0.0944664  -0.1462778  )
        21           16  tau(  21) = (   0.0733662   0.1349433   0.2246357  )
        22           16  tau(  22) = (   0.0717935  -0.1258727   0.2232975  )
        23           16  tau(  23) = (   0.0726340   0.1350430   0.0747190  )
        24           16  tau(  24) = (   0.0719865  -0.1250563   0.0743814  )
        25           16  tau(  25) = (  -0.0000197   0.2690207   0.2193732  )
        26           16  tau(  26) = (   0.0003618  -0.2690299   0.1931215  )
        27           16  tau(  27) = (  -0.0011827   0.0062775   0.2230877  )
        28           16  tau(  28) = (  -0.0000458   0.2692864   0.0758857  )
        29           16  tau(  29) = (   0.0000866  -0.2630339   0.0947455  )
        30           16  tau(  30) = (  -0.0005807   0.0071051   0.0748717  )
        31           16  tau(  31) = (   0.2238775   0.1351880   0.2233013  )
        32           16  tau(  32) = (   0.2241884   0.1354037   0.0747870  )
        33           16  tau(  33) = (   0.1510682   0.2683105   0.2186010  )
        34           16  tau(  34) = (   0.1536584   0.0002532   0.2140896  )
        35           16  tau(  35) = (   0.1514609   0.2669016   0.0757443  )
        36           16  tau(  36) = (   0.1520607   0.0059423   0.0763423  )
        37           16  tau(  37) = (  -0.2309343   0.1351231   0.2224748  )
        38           16  tau(  38) = (  -0.2316674   0.1351642   0.0758561  )
        39           16  tau(  39) = (  -0.3132528   0.2683343   0.1973909  )
        40           16  tau(  40) = (   0.3133736   0.2678255   0.1974321  )
        41           16  tau(  41) = (  -0.3131775   0.2687260   0.0998944  )
        42           16  tau(  42) = (   0.3133004   0.2682668   0.0996056  )
        43           16  tau(  43) = (  -0.0785131   0.1352869   0.2247413  )
        44           16  tau(  44) = (  -0.0805466  -0.1267210   0.2172649  )
        45           16  tau(  45) = (  -0.0784563   0.1347199   0.0744023  )
        46           16  tau(  46) = (  -0.0795364  -0.1262572   0.0749207  )
        47           16  tau(  47) = (  -0.1510325   0.2680324   0.2189813  )
        48           16  tau(  48) = (  -0.1525681   0.0065213   0.2192345  )
        49           16  tau(  49) = (  -0.1514600   0.2669050   0.0756768  )
        50           16  tau(  50) = (  -0.1583084   0.0035231   0.0789415  )
        51           16  tau(  51) = (   0.0728519   0.1340660  -0.0738907  )
        52           16  tau(  52) = (   0.0723983  -0.1260680  -0.0722665  )
        53           16  tau(  53) = (   0.0782949   0.1359529  -0.2236800  )
        54           16  tau(  54) = (   0.0719360  -0.1250680  -0.2208783  )
        55           16  tau(  55) = (  -0.0008003   0.2689640  -0.0763147  )
        56           16  tau(  56) = (   0.0001836  -0.2692864  -0.1016873  )
        57           16  tau(  57) = (  -0.0008081   0.0068588  -0.0736141  )
        58           16  tau(  58) = (  -0.0005577   0.2690490  -0.2167639  )
        59           16  tau(  59) = (   0.0002424  -0.2629713  -0.1999783  )
        60           16  tau(  60) = (   0.0001814   0.0039060  -0.2245940  )
        61           16  tau(  61) = (   0.2306598   0.1347225  -0.0728318  )
        62           16  tau(  62) = (   0.2313697   0.1351249  -0.2190141  )
        63           16  tau(  63) = (   0.1511790   0.2665761  -0.0725438  )
        64           16  tau(  64) = (   0.1520442   0.0059020  -0.0740203  )
        65           16  tau(  65) = (   0.1515048   0.2683885  -0.2159074  )
        66           16  tau(  66) = (   0.1536112   0.0043231  -0.2135004  )
        67           16  tau(  67) = (  -0.2235577   0.1358721  -0.0711091  )
        68           16  tau(  68) = (  -0.2324205   0.1328529  -0.2200157  )
        69           16  tau(  69) = (  -0.3129273   0.2669626  -0.0989246  )
        70           16  tau(  70) = (   0.3134356   0.2685710  -0.0970662  )
        71           16  tau(  71) = (  -0.3135093   0.2684859  -0.1962181  )
        72           16  tau(  72) = (   0.3135093   0.2682542  -0.1945077  )
        73           16  tau(  73) = (  -0.0725308   0.1350425  -0.0749648  )
        74           16  tau(  74) = (  -0.0803268  -0.1268920  -0.0761756  )
        75           16  tau(  75) = (  -0.0785479   0.1355718  -0.2247413  )
        76           16  tau(  76) = (  -0.0780307  -0.1263069  -0.2192402  )
        77           16  tau(  77) = (  -0.1519946   0.2667081  -0.0758069  )
        78           16  tau(  78) = (  -0.1524584   0.0061881  -0.0757710  )
        79           16  tau(  79) = (  -0.1526499   0.2691607  -0.2192151  )
        80           16  tau(  80) = (  -0.1526229   0.0059415  -0.2171817  )

     number of k points=     1  Fermi-Dirac smearing, width (Ry)=  0.0032
                       cart. coord. in units 2pi/alat
        k(    1) = (   0.0000000   0.0000000   0.0000000), wk =   2.0000000

     Dense  grid:  4323542 G-vectors     FFT dimensions: ( 256, 256, 256)

     Estimated max dynamical RAM per process >     534.51 MB

     Estimated total dynamical RAM >      56.37 GB

     Initial potential from superposition of free atoms

     starting charge  639.98782, renormalised to  640.00000

     negative rho (up, down):  4.999E-04 0.000E+00
     Starting wfcs are  440 randomized atomic wfcs

     total cpu time spent up to now is        8.0 secs

     Self-consistent Calculation

     iteration #  1     ecut=   100.00 Ry     beta= 0.20
     Davidson diagonalization with overlap
     ethr =  1.00E-02,  avg # of iterations =  3.0

     negative rho (up, down):  4.516E-05 0.000E+00

     total cpu time spent up to now is       24.3 secs

     total energy              =   -4358.76195842 Ry
     Harris-Foulkes estimate   =   -4361.07313681 Ry
     estimated scf accuracy    <       7.63931925 Ry

     iteration #  2     ecut=   100.00 Ry     beta= 0.20
     Davidson diagonalization with overlap
     ethr =  1.19E-03,  avg # of iterations =  2.0

     negative rho (up, down):  2.938E-05 0.000E+00

     total cpu time spent up to now is       38.0 secs

     total energy              =   -4360.17300958 Ry
     Harris-Foulkes estimate   =   -4361.54005613 Ry
     estimated scf accuracy    <       8.06739491 Ry

     iteration #  3     ecut=   100.00 Ry     beta= 0.20
     Davidson diagonalization with overlap
     ethr =  1.19E-03,  avg # of iterations =  1.0

     negative rho (up, down):  2.537E-05 0.000E+00

     total cpu time spent up to now is       49.7 secs

     total energy              =   -4360.42836962 Ry
     Harris-Foulkes estimate   =   -4360.85778857 Ry
     estimated scf accuracy    <       3.45082286 Ry

     iteration #  4     ecut=   100.00 Ry     beta= 0.20
     Davidson diagonalization with overlap
     ethr =  5.39E-04,  avg # of iterations =  1.0

     negative rho (up, down):  2.305E-05 0.000E+00

     total cpu time spent up to now is       61.5 secs

     total energy              =   -4360.42422198 Ry
     Harris-Foulkes estimate   =   -4360.69386419 Ry
     estimated scf accuracy    <       2.43593210 Ry

     iteration #  5     ecut=   100.00 Ry     beta= 0.20
     Davidson diagonalization with overlap
     ethr =  3.81E-04,  avg # of iterations =  1.0

     negative rho (up, down):  1.523E-05 0.000E+00

     total cpu time spent up to now is       73.4 secs

     total energy              =   -4360.30219426 Ry
     Harris-Foulkes estimate   =   -4360.55116007 Ry
     estimated scf accuracy    <       0.80308695 Ry

     iteration #  6     ecut=   100.00 Ry     beta= 0.20
     Davidson diagonalization with overlap
     ethr =  1.25E-04,  avg # of iterations =  8.0

     negative rho (up, down):  1.152E-05 0.000E+00

     total cpu time spent up to now is       90.7 secs

     total energy              =   -4360.45758003 Ry
     Harris-Foulkes estimate   =   -4360.74483221 Ry
     estimated scf accuracy    <       5.67134259 Ry

     iteration #  7     ecut=   100.00 Ry     beta= 0.20
     Davidson diagonalization with overlap
     ethr =  1.25E-04,  avg # of iterations =  1.0

     negative rho (up, down):  9.229E-06 0.000E+00

     total cpu time spent up to now is      107.5 secs

     total energy              =   -4360.33795322 Ry
     Harris-Foulkes estimate   =   -4360.54723550 Ry
     estimated scf accuracy    <       3.34920901 Ry

     iteration #  8     ecut=   100.00 Ry     beta= 0.20
     Davidson diagonalization with overlap
     ethr =  1.25E-04,  avg # of iterations =  3.0

     negative rho (up, down):  5.820E-06 0.000E+00

     total cpu time spent up to now is      120.5 secs

     total energy              =   -4360.39737185 Ry
     Harris-Foulkes estimate   =   -4360.45157833 Ry
     estimated scf accuracy    <       0.49691170 Ry

     iteration #  9     ecut=   100.00 Ry     beta= 0.20
     Davidson diagonalization with overlap
     ethr =  7.76E-05,  avg # of iterations =  6.0

     negative rho (up, down):  3.925E-06 0.000E+00

     total cpu time spent up to now is      134.6 secs

     total energy              =   -4360.43195159 Ry
     Harris-Foulkes estimate   =   -4360.46854747 Ry
     estimated scf accuracy    <       0.52644842 Ry

     iteration # 10     ecut=   100.00 Ry     beta= 0.20
     Davidson diagonalization with overlap
     ethr =  7.76E-05,  avg # of iterations =  1.0

     negative rho (up, down):  3.995E-06 0.000E+00

     total cpu time spent up to now is      146.3 secs

     total energy              =   -4360.43526224 Ry
     Harris-Foulkes estimate   =   -4360.45395541 Ry
     estimated scf accuracy    <       0.25469871 Ry

     iteration # 11     ecut=   100.00 Ry     beta= 0.20
     Davidson diagonalization with overlap
     ethr =  3.98E-05,  avg # of iterations =  1.0

     negative rho (up, down):  3.093E-06 0.000E+00

     total cpu time spent up to now is      158.2 secs

     total energy              =   -4360.43177434 Ry
     Harris-Foulkes estimate   =   -4360.44316387 Ry
     estimated scf accuracy    <       0.13960640 Ry

     iteration # 12     ecut=   100.00 Ry     beta= 0.20
     Davidson diagonalization with overlap
     ethr =  2.18E-05,  avg # of iterations =  7.0

     negative rho (up, down):  2.299E-06 0.000E+00

     total cpu time spent up to now is      172.6 secs

     total energy              =   -4360.43222247 Ry
     Harris-Foulkes estimate   =   -4360.44047570 Ry
     estimated scf accuracy    <       0.09806245 Ry

     iteration # 13     ecut=   100.00 Ry     beta= 0.20
     Davidson diagonalization with overlap
     ethr =  1.53E-05,  avg # of iterations =  1.0

     negative rho (up, down):  1.523E-06 0.000E+00

     total cpu time spent up to now is      184.7 secs

     total energy              =   -4360.43466244 Ry
     Harris-Foulkes estimate   =   -4360.43867393 Ry
     estimated scf accuracy    <       0.05234486 Ry

     iteration # 14     ecut=   100.00 Ry     beta= 0.20
     Davidson diagonalization with overlap
     ethr =  8.18E-06,  avg # of iterations =  7.0

     negative rho (up, down):  8.093E-07 0.000E+00

     total cpu time spent up to now is      199.5 secs

     total energy              =   -4360.43466918 Ry
     Harris-Foulkes estimate   =   -4360.43732010 Ry
     estimated scf accuracy    <       0.04039456 Ry

     iteration # 15     ecut=   100.00 Ry     beta= 0.20
     Davidson diagonalization with overlap
     ethr =  6.31E-06,  avg # of iterations =  1.0

     negative rho (up, down):  4.237E-07 0.000E+00

     total cpu time spent up to now is      211.3 secs

     total energy              =   -4360.43400962 Ry
     Harris-Foulkes estimate   =   -4360.43812412 Ry
     estimated scf accuracy    <       0.08337915 Ry

     iteration # 16     ecut=   100.00 Ry     beta= 0.20
     Davidson diagonalization with overlap
     ethr =  6.31E-06,  avg # of iterations =  1.0

     negative rho (up, down):  5.847E-08 0.000E+00

     total cpu time spent up to now is      223.1 secs

     total energy              =   -4360.43538245 Ry
     Harris-Foulkes estimate   =   -4360.43700045 Ry
     estimated scf accuracy    <       0.02382044 Ry

     iteration # 17     ecut=   100.00 Ry     beta= 0.20
     Davidson diagonalization with overlap
     ethr =  3.72E-06,  avg # of iterations =  7.0

     negative rho (up, down):  1.578E-07 0.000E+00

     total cpu time spent up to now is      237.8 secs

     total energy              =   -4360.43600800 Ry
     Harris-Foulkes estimate   =   -4360.43679737 Ry
     estimated scf accuracy    <       0.01061708 Ry

     iteration # 18     ecut=   100.00 Ry     beta= 0.20
     Davidson diagonalization with overlap
     ethr =  1.66E-06,  avg # of iterations =  8.0

     negative rho (up, down):  2.144E-08 0.000E+00

     total cpu time spent up to now is      252.9 secs

     total energy              =   -4360.43631571 Ry
     Harris-Foulkes estimate   =   -4360.43645627 Ry
     estimated scf accuracy    <       0.00169131 Ry

     iteration # 19     ecut=   100.00 Ry     beta= 0.20
     Davidson diagonalization with overlap
     ethr =  2.64E-07,  avg # of iterations =  1.0

     negative rho (up, down):  1.242E-08 0.000E+00

     total cpu time spent up to now is      265.2 secs

     total energy              =   -4360.43639907 Ry
     Harris-Foulkes estimate   =   -4360.43644607 Ry
     estimated scf accuracy    <       0.00038509 Ry

     iteration # 20     ecut=   100.00 Ry     beta= 0.20
     Davidson diagonalization with overlap
     ethr =  6.02E-08,  avg # of iterations =  4.0

     total cpu time spent up to now is      278.6 secs

     total energy              =   -4360.43640439 Ry
     Harris-Foulkes estimate   =   -4360.43645218 Ry
     estimated scf accuracy    <       0.00066280 Ry

     iteration # 21     ecut=   100.00 Ry     beta= 0.20
     Davidson diagonalization with overlap
     ethr =  6.02E-08,  avg # of iterations =  1.0

     total cpu time spent up to now is      290.4 secs

     total energy              =   -4360.43641194 Ry
     Harris-Foulkes estimate   =   -4360.43644732 Ry
     estimated scf accuracy    <       0.00051796 Ry

     iteration # 22     ecut=   100.00 Ry     beta= 0.20
     Davidson diagonalization with overlap
     ethr =  6.02E-08,  avg # of iterations =  1.0

     total cpu time spent up to now is      302.3 secs

     total energy              =   -4360.43641930 Ry
     Harris-Foulkes estimate   =   -4360.43644016 Ry
     estimated scf accuracy    <       0.00024588 Ry

     iteration # 23     ecut=   100.00 Ry     beta= 0.20
     Davidson diagonalization with overlap
     ethr =  3.84E-08,  avg # of iterations =  1.0

     total cpu time spent up to now is      314.1 secs

     total energy              =   -4360.43641301 Ry
     Harris-Foulkes estimate   =   -4360.43644750 Ry
     estimated scf accuracy    <       0.00052940 Ry

     iteration # 24     ecut=   100.00 Ry     beta= 0.20
     Davidson diagonalization with overlap
     ethr =  3.84E-08,  avg # of iterations =  1.0

     total cpu time spent up to now is      325.9 secs

     total energy              =   -4360.43642615 Ry
     Harris-Foulkes estimate   =   -4360.43643654 Ry
     estimated scf accuracy    <       0.00014799 Ry

     iteration # 25     ecut=   100.00 Ry     beta= 0.20
     Davidson diagonalization with overlap
     ethr =  2.31E-08,  avg # of iterations =  1.0

     total cpu time spent up to now is      337.8 secs

     total energy              =   -4360.43642753 Ry
     Harris-Foulkes estimate   =   -4360.43643527 Ry
     estimated scf accuracy    <       0.00009980 Ry

     iteration # 26     ecut=   100.00 Ry     beta= 0.20
     Davidson diagonalization with overlap
     ethr =  1.56E-08,  avg # of iterations =  1.0

     total cpu time spent up to now is      349.8 secs

     total energy              =   -4360.43642805 Ry
     Harris-Foulkes estimate   =   -4360.43643454 Ry
     estimated scf accuracy    <       0.00009294 Ry

     iteration # 27     ecut=   100.00 Ry     beta= 0.20
     Davidson diagonalization with overlap
     ethr =  1.45E-08,  avg # of iterations =  1.0

     total cpu time spent up to now is      361.5 secs

     total energy              =   -4360.43642967 Ry
     Harris-Foulkes estimate   =   -4360.43643233 Ry
     estimated scf accuracy    <       0.00004128 Ry

     iteration # 28     ecut=   100.00 Ry     beta= 0.20
     Davidson diagonalization with overlap
     ethr =  6.45E-09,  avg # of iterations =  1.0

     total cpu time spent up to now is      373.5 secs

     total energy              =   -4360.43643073 Ry
     Harris-Foulkes estimate   =   -4360.43643274 Ry
     estimated scf accuracy    <       0.00002870 Ry

     iteration # 29     ecut=   100.00 Ry     beta= 0.20
     Davidson diagonalization with overlap
     ethr =  4.48E-09,  avg # of iterations =  1.0

     total cpu time spent up to now is      385.3 secs

     total energy              =   -4360.43643148 Ry
     Harris-Foulkes estimate   =   -4360.43643176 Ry
     estimated scf accuracy    <       0.00000216 Ry

     iteration # 30     ecut=   100.00 Ry     beta= 0.20
     Davidson diagonalization with overlap
     ethr =  3.38E-10,  avg # of iterations =  4.0

     negative rho (up, down):  1.421E-08 0.000E+00

     total cpu time spent up to now is      398.6 secs

     total energy              =   -4360.43643142 Ry
     Harris-Foulkes estimate   =   -4360.43643186 Ry
     estimated scf accuracy    <       0.00000702 Ry

     iteration # 31     ecut=   100.00 Ry     beta= 0.20
     Davidson diagonalization with overlap
     ethr =  3.38E-10,  avg # of iterations =  1.0

     negative rho (up, down):  2.323E-08 0.000E+00

     total cpu time spent up to now is      416.0 secs

     total energy              =   -4360.43643157 Ry
     Harris-Foulkes estimate   =   -4360.43643177 Ry
     estimated scf accuracy    <       0.00000304 Ry

     iteration # 32     ecut=   100.00 Ry     beta= 0.20
     Davidson diagonalization with overlap
     ethr =  3.38E-10,  avg # of iterations =  1.0

     negative rho (up, down):  2.037E-08 0.000E+00

     total cpu time spent up to now is      428.3 secs

     total energy              =   -4360.43643158 Ry
     Harris-Foulkes estimate   =   -4360.43643176 Ry
     estimated scf accuracy    <       0.00000236 Ry

     iteration # 33     ecut=   100.00 Ry     beta= 0.20
     Davidson diagonalization with overlap
     ethr =  3.38E-10,  avg # of iterations =  1.0

     negative rho (up, down):  2.551E-08 0.000E+00

     total cpu time spent up to now is      440.3 secs

     total energy              =   -4360.43643161 Ry
     Harris-Foulkes estimate   =   -4360.43643175 Ry
     estimated scf accuracy    <       0.00000209 Ry

     iteration # 34     ecut=   100.00 Ry     beta= 0.20
     Davidson diagonalization with overlap
     ethr =  3.27E-10,  avg # of iterations =  1.0

     negative rho (up, down):  2.516E-08 0.000E+00

     total cpu time spent up to now is      452.2 secs

     total energy              =   -4360.43643164 Ry
     Harris-Foulkes estimate   =   -4360.43643173 Ry
     estimated scf accuracy    <       0.00000164 Ry

     iteration # 35     ecut=   100.00 Ry     beta= 0.20
     Davidson diagonalization with overlap
     ethr =  2.56E-10,  avg # of iterations =  1.0

     negative rho (up, down):  2.020E-08 0.000E+00

     total cpu time spent up to now is      464.1 secs

     total energy              =   -4360.43643167 Ry
     Harris-Foulkes estimate   =   -4360.43643171 Ry
     estimated scf accuracy    <       0.00000060 Ry

     iteration # 36     ecut=   100.00 Ry     beta= 0.20
     Davidson diagonalization with overlap
     ethr =  9.32E-11,  avg # of iterations =  1.0

     negative rho (up, down):  2.030E-08 0.000E+00

     total cpu time spent up to now is      475.8 secs

     total energy              =   -4360.43643168 Ry
     Harris-Foulkes estimate   =   -4360.43643171 Ry
     estimated scf accuracy    <       0.00000061 Ry

     iteration # 37     ecut=   100.00 Ry     beta= 0.20
     Davidson diagonalization with overlap
     ethr =  9.32E-11,  avg # of iterations =  1.0

     negative rho (up, down):  1.382E-08 0.000E+00

     total cpu time spent up to now is      487.7 secs

     total energy              =   -4360.43643168 Ry
     Harris-Foulkes estimate   =   -4360.43643171 Ry
     estimated scf accuracy    <       0.00000051 Ry

     iteration # 38     ecut=   100.00 Ry     beta= 0.20
     Davidson diagonalization with overlap
     ethr =  8.00E-11,  avg # of iterations =  1.0

     negative rho (up, down):  1.134E-08 0.000E+00

     total cpu time spent up to now is      499.6 secs

     total energy              =   -4360.43643169 Ry
     Harris-Foulkes estimate   =   -4360.43643170 Ry
     estimated scf accuracy    <       0.00000015 Ry

     iteration # 39     ecut=   100.00 Ry     beta= 0.20
     Davidson diagonalization with overlap
     ethr =  2.35E-11,  avg # of iterations =  1.0

     total cpu time spent up to now is      511.4 secs

     End of self-consistent calculation

          k = 0.0000 0.0000 0.0000 (540376 PWs)   bands (ev):

   -78.1071 -78.1028 -78.0827 -78.0825 -78.0775 -78.0688 -77.8126 -77.8080
   -77.8013 -77.7948 -77.7878 -77.7838 -77.7758 -77.7744 -77.7696 -77.7666
   -77.7425 -77.7327 -77.5433 -77.5266 -42.4505 -42.4449 -42.4425 -42.4397
   -42.4164 -42.4151 -42.2787 -42.2750 -42.2634 -42.2614 -42.2578 -42.2533
   -42.2182 -42.2041 -42.1939 -42.1907 -42.1869 -42.1800 -42.1780 -42.1736
   -42.1610 -42.1580 -42.1546 -42.1524 -42.1125 -42.0876 -42.0851 -42.0842
   -42.0655 -42.0651 -41.9731 -41.9626 -41.9551 -41.9503 -41.9501 -41.9443
   -41.9411 -41.9341 -41.9325 -41.9265 -41.9224 -41.9168 -41.9137 -41.9068
   -41.9047 -41.9031 -41.8888 -41.8845 -41.8303 -41.8247 -41.8152 -41.7942
   -41.7754 -41.7672 -41.7578 -41.7551 -41.7518 -41.7370 -41.7345 -41.7299
   -18.2955 -18.2894 -18.2832 -18.2227 -18.1695 -18.1559 -17.7640 -17.6379
   -17.0378 -17.0282 -16.9104 -16.9015 -16.5150 -16.3559 -16.2963 -16.2415
   -16.2227 -16.1930 -16.1675 -16.1643 -16.1040 -16.0723 -16.0532 -16.0339
   -16.0175 -16.0052 -15.9133 -15.8934 -15.7423 -15.7399 -15.6238 -15.5905
   -15.5161 -15.4611 -15.4532 -15.4290 -15.4137 -15.3887 -15.3479 -15.3314
   -15.3169 -15.3108 -15.2614 -15.2512 -15.2419 -15.2170 -15.1962 -15.1825
   -15.1344 -15.1175 -15.1000 -15.0552 -15.0009 -14.9907 -13.9052 -13.8663
   -13.8618 -13.8615 -13.8209 -13.8209  -9.5622  -9.3334  -9.2487  -9.1552
    -9.1465  -9.0077  -8.9936  -8.9862  -8.7829  -8.7743  -8.6561  -8.5870
    -8.5530  -8.5247  -8.4965  -8.4616  -8.4450  -8.4359  -8.4233  -8.4143
    -8.4075  -8.3886  -8.3851  -8.3775  -8.3573  -8.3449  -8.2600  -8.2086
    -8.1942  -8.1864  -8.1627  -8.1467  -8.0934  -7.9988  -7.9144  -7.8855
    -7.8540  -7.8504  -7.8379  -7.8084  -7.7281  -7.7071  -7.6769  -7.6356
    -7.6149  -7.5949  -7.5898  -7.5783  -7.5657  -7.5496  -7.4624  -7.4416
    -7.4366  -7.4221  -7.3919  -7.3339  -7.3302  -7.3147  -7.2940  -7.2504
    -7.2264  -7.1781  -7.1247  -7.1107  -7.0424  -7.0257  -7.0222  -7.0158
    -6.9957  -6.9761  -6.9457  -6.9418  -6.9356  -6.8786  -6.8507  -6.8330
    -6.7786  -6.7638  -6.7501  -6.7281  -6.7106  -6.6147  -6.5744  -6.5479
    -6.5331  -6.4605  -6.4432  -6.4142  -6.3894  -6.3754  -6.3492  -6.3195
    -6.3103  -6.2905  -6.2738  -6.2514  -6.2223  -6.1576  -6.1015  -6.0739
    -6.0673  -6.0559  -6.0234  -6.0006  -5.9829  -5.9462  -5.9178  -5.8858
    -5.8703  -5.8322  -5.8237  -5.8068  -5.7792  -5.7731  -5.7457  -5.7199
    -5.6834  -5.6467  -5.6174  -5.5885  -5.5762  -5.5401  -5.4527  -5.4449
    -5.4171  -5.3897  -5.3645  -5.3022  -5.2895  -5.2635  -5.2396  -5.2320
    -5.0612  -5.0455  -5.0402  -5.0144  -4.9992  -4.9442  -4.9130  -4.8688
    -4.8556  -4.7998  -4.7972  -4.7354  -4.7143  -4.7074  -4.6786  -4.6651
    -4.6073  -4.5235  -4.5083  -4.4946  -4.4402  -4.3064  -4.2917  -4.2356
    -4.2282  -4.1711  -4.1150  -4.0862  -4.0531  -4.0102  -3.9234  -3.8905
    -3.8684  -3.7892  -3.7775  -3.7424  -3.7118  -3.6725  -3.6515  -3.6325
    -3.5985  -3.5298  -3.4687  -3.4424  -3.4320  -3.4236  -3.4197  -3.4119
    -3.4072  -3.2219  -3.1969  -3.1536  -3.1330  -3.1179  -2.9276  -2.8954
    -2.7323  -2.7172  -2.6306  -2.5656  -2.5018  -2.3797  -2.0834  -2.0347
    -1.9184  -1.8930  -1.8515  -1.8449  -1.7837  -1.7271  -1.6290  -1.5919
    -1.5312  -1.5001  -1.4340  -1.3403  -1.2400  -1.2093  -1.1015  -1.0351
    -0.9793  -0.9736  -0.9654  -0.9365  -0.9152  -0.8998  -0.8721  -0.7913
    -0.7597  -0.7325  -0.7055  -0.6553  -0.5814  -0.5612  -0.5252  -0.5183
    -0.4943  -0.4687  -0.4543  -0.4368  -0.3942  -0.3427  -0.3207  -0.2486
    -0.2279  -0.2115  -0.1971  -0.1653  -0.1542  -0.1103  -0.0926  -0.0258

     the Fermi energy is    -3.3527 ev

!    total energy              =   -4360.43643164 Ry
     Harris-Foulkes estimate   =   -4360.43643170 Ry
     estimated scf accuracy    <       0.00000008 Ry

     The total energy is the sum of the following terms:

     one-electron contribution =  -23291.80155779 Ry
     hartree contribution      =   11599.63415897 Ry
     xc contribution           =   -1039.44419203 Ry
     ewald contribution        =    8371.19720418 Ry
     smearing contrib. (-TS)   =      -0.02204497 Ry

     convergence has been achieved in  39 iterations

     Forces acting on atoms (cartesian axes, Ry/au):

     atom    1 type  1   force =     0.03174930    0.00699615   -0.00531999
     atom    2 type  1   force =     0.00497132    0.01217024   -0.01153981
     atom    3 type  1   force =    -0.01637319   -0.01764116    0.00013252
     atom    4 type  1   force =    -0.01876408    0.01429673   -0.00125519
     atom    5 type  1   force =     0.00082751   -0.01224910   -0.00526263
     atom    6 type  1   force =    -0.03387171   -0.00942493   -0.00433560
     atom    7 type  1   force =    -0.01179565   -0.00409035   -0.00619678
     atom    8 type  1   force =    -0.04469884    0.00824725   -0.00688581
     atom    9 type  1   force =     0.00659457    0.02328464    0.01245277
     atom   10 type  1   force =     0.00037853   -0.00958924    0.00244595
     atom   11 type  1   force =     0.03471215    0.00294460   -0.00359169
     atom   12 type  1   force =     0.01426674    0.01923190   -0.00660972
     atom   13 type  1   force =     0.01051524    0.01351816    0.01059681
     atom   14 type  1   force =    -0.01483375    0.01095121    0.00204796
     atom   15 type  1   force =     0.01132554   -0.00488240   -0.00241614
     atom   16 type  1   force =    -0.00815481   -0.01389209    0.00346660
     atom   17 type  1   force =    -0.00518701    0.02439633   -0.00054962
     atom   18 type  1   force =     0.01456073    0.00250849    0.00791470
     atom   19 type  1   force =    -0.00762410    0.02399616    0.00797769
     atom   20 type  1   force =     0.02377380   -0.02039060   -0.00298992
     atom   21 type  2   force =     0.01011018    0.00448455   -0.00531122
     atom   22 type  2   force =     0.00059326   -0.00063296   -0.00324364
     atom   23 type  2   force =     0.01206292    0.00621805    0.00785662
     atom   24 type  2   force =     0.00253355    0.00381589    0.00088582
     atom   25 type  2   force =    -0.00156842   -0.00047358   -0.00538861
     atom   26 type  2   force =     0.00165298    0.01128259   -0.00856982
     atom   27 type  2   force =    -0.01257415   -0.01242206   -0.00627353
     atom   28 type  2   force =    -0.00181292   -0.00541488    0.01153054
     atom   29 type  2   force =    -0.00079344   -0.00569049    0.00871702
     atom   30 type  2   force =    -0.00658568   -0.00333092    0.00738043
     atom   31 type  2   force =     0.00437486    0.00893205   -0.00345913
     atom   32 type  2   force =     0.00660577    0.01133911    0.00426975
     atom   33 type  2   force =    -0.00770381   -0.00502358   -0.00554877
     atom   34 type  2   force =     0.00647414    0.00627218   -0.00232015
     atom   35 type  2   force =    -0.00542009   -0.00716595    0.00985876
     atom   36 type  2   force =    -0.00285295   -0.01100939    0.01119085
     atom   37 type  2   force =     0.01657305    0.00966040   -0.00879644
     atom   38 type  2   force =     0.01308242    0.00771317    0.00957305
     atom   39 type  2   force =     0.00886351   -0.00327022   -0.00386540
     atom   40 type  2   force =    -0.01059450   -0.00631935   -0.00413072
     atom   41 type  2   force =     0.00810899   -0.00092133    0.00351582
     atom   42 type  2   force =    -0.01018595   -0.00385523    0.00427519
     atom   43 type  2   force =     0.01065503    0.00586755   -0.00610214
     atom   44 type  2   force =     0.00659502   -0.00137657   -0.00627837
     atom   45 type  2   force =     0.01175474    0.00468466    0.00864900
     atom   46 type  2   force =     0.01110930   -0.00082574    0.00470547
     atom   47 type  2   force =     0.00549544   -0.00680795   -0.00452314
     atom   48 type  2   force =    -0.00244610   -0.00859562   -0.00783352
     atom   49 type  2   force =     0.00279219   -0.00720614    0.00959631
     atom   50 type  2   force =     0.00554771   -0.00103973    0.00436857
     atom   51 type  2   force =     0.00672350   -0.00016282   -0.01259243
     atom   52 type  2   force =     0.00380746   -0.00028060   -0.00498018
     atom   53 type  2   force =    -0.01046841    0.00149913    0.00983557
     atom   54 type  2   force =     0.00214657    0.00388135    0.00143547
     atom   55 type  2   force =    -0.00742522   -0.00146408   -0.00630638
     atom   56 type  2   force =     0.00027551    0.00826308   -0.00777662
     atom   57 type  2   force =    -0.00837642   -0.00498097   -0.01590833
     atom   58 type  2   force =    -0.00594766   -0.00191873    0.00560821
     atom   59 type  2   force =     0.00065003   -0.00412036    0.00950406
     atom   60 type  2   force =    -0.00060604   -0.00418642    0.00866651
     atom   61 type  2   force =    -0.01935652    0.00650512   -0.00821210
     atom   62 type  2   force =    -0.01688340    0.00748514    0.01124026
     atom   63 type  2   force =    -0.00772909   -0.00956336   -0.00770901
     atom   64 type  2   force =    -0.00326198   -0.00959818   -0.01219358
     atom   65 type  2   force =    -0.00524562   -0.00444261    0.00563854
     atom   66 type  2   force =    -0.00042633   -0.00599556    0.00915646
     atom   67 type  2   force =    -0.00494631    0.01093462   -0.00322145
     atom   68 type  2   force =     0.00655884   -0.00082715    0.00653050
     atom   69 type  2   force =     0.01016489   -0.00876902   -0.00562881
     atom   70 type  2   force =    -0.00975345   -0.00196657   -0.00291796
     atom   71 type  2   force =     0.00704903   -0.00219254    0.00055360
     atom   72 type  2   force =    -0.00969456   -0.00396662    0.00339949
     atom   73 type  2   force =    -0.01123093    0.00360272   -0.01212763
     atom   74 type  2   force =     0.00823113   -0.00209183   -0.00481077
     atom   75 type  2   force =     0.00599357    0.00150601    0.00772878
     atom   76 type  2   force =     0.01001695    0.00075298    0.00642874
     atom   77 type  2   force =    -0.00214036   -0.01380225   -0.00695980
     atom   78 type  2   force =    -0.00214649   -0.00838683   -0.00907016
     atom   79 type  2   force =    -0.00771915   -0.00613426    0.01153435
     atom   80 type  2   force =    -0.00307890   -0.00884989    0.00834398

     Total force =     0.149950     Total SCF correction =     0.000859
 
     init_run     :      7.27s CPU      7.83s WALL (       1 calls)
     electrons    :    478.77s CPU    503.37s WALL (       1 calls)
     forces       :      2.46s CPU      2.57s WALL (       1 calls)

     Called by init_run:
     wfcinit      :      4.75s CPU      5.19s WALL (       1 calls)
     potinit      :      0.30s CPU      0.32s WALL (       1 calls)
     hinit0       :      0.38s CPU      0.41s WALL (       1 calls)

     Called by electrons:
     c_bands      :    398.43s CPU    419.79s WALL (      39 calls)
     sum_band     :     70.99s CPU     73.91s WALL (      39 calls)
     v_of_rho     :      6.75s CPU      7.01s WALL (      40 calls)
     mix_rho      :      2.38s CPU      2.44s WALL (      39 calls)

     Called by c_bands:
     init_us_2    :      4.35s CPU      4.84s WALL (      79 calls)
     regterg      :    375.09s CPU    395.87s WALL (      39 calls)

     Called by sum_band:

     Called by *egterg:
     h_psi        :    306.47s CPU    319.51s WALL (     127 calls)
     g_psi        :      0.37s CPU      0.38s WALL (      87 calls)
     rdiaghg      :     23.44s CPU     23.64s WALL (     126 calls)

     Called by h_psi:
     h_psi:calbec :     35.33s CPU     36.17s WALL (     127 calls)
     vloc_psi     :    238.44s CPU    249.77s WALL (     127 calls)
     add_vuspsi   :     31.71s CPU     32.50s WALL (     127 calls)

     General routines
     calbec       :     36.95s CPU     37.80s WALL (     131 calls)
     fft          :      6.26s CPU      6.44s WALL (     328 calls)
     ffts         :      0.96s CPU      0.98s WALL (      39 calls)
     fftw         :    263.18s CPU    273.08s WALL (   38560 calls)
 
     Parallel routines
     fft_scatt_xy :     53.75s CPU     57.44s WALL (   38927 calls)
     fft_scatt_yz :    105.37s CPU    108.30s WALL (   38927 calls)
 
     PWSCF        :   8m 8.68s CPU   8m34.72s WALL

 
   This run was terminated on:  15:14:21   4Jul2021            

=------------------------------------------------------------------------------=
   JOB DONE.
=------------------------------------------------------------------------------=
