
     Program PWSCF v.7.4.1 starts on  4Jul2025 at  7:59:21 

     This program is part of the open-source Quantum ESPRESSO suite
     for quantum simulation of materials; please cite
         "P. Giannozzi et al., J. Phys.:Condens. Matter 21 395502 (2009);
         "P. Giannozzi et al., J. Phys.:Condens. Matter 29 465901 (2017);
         "P. Giannozzi et al., J. Chem. Phys. 152 154105 (2020);
          URL http://www.quantum-espresso.org", 
     in publications or presentations arising from this work. More details at
     http://www.quantum-espresso.org/quote

     Parallel version (MPI), running on     8 processors

     MPI processes distributed on     1 nodes
     568601 MiB available memory on the printing compute node when the environment starts
 
     Reading input from CrI3.relax.in
Warning: card  &CELL ignored
Warning: card     CELL_DOFREE='2DXY' ignored
Warning: card  / ignored

     Current dimensions of program PWSCF are:
     Max number of different atomic species (ntypx) = 10
     Max number of k-points (npk) =  40000
     Max angular momentum in pseudopotentials (lmaxx) =  4
     Found identity + (  0.0000  0.3333 -0.0000) symmetry
     This is a supercell, fractional translations are disabled
 
     R & G space division:  proc/nbgrp/npool/nimage =       8
     Subspace diagonalization in iterative solution of the eigenvalue problem:
     a serial algorithm will be used

 
     Parallelization info
     --------------------
     sticks:   dense  smooth     PW     G-vecs:    dense   smooth      PW
     Min        4732    4732   1220              1285508  1285508  168978
     Max        4733    4733   1221              1285518  1285518  168988
     Sum       37857   37857   9761             10284083 10284083 1351867
 
     Using Slab Decomposition
 


     bravais-lattice index     =            0
     lattice parameter (alat)  =      37.0722  a.u.
     unit-cell volume          =   76129.0660 (a.u.)^3
     number of atoms/cell      =          144
     number of atomic types    =            4
     number of electrons       =      1260.00
     number of Kohn-Sham states=          756
     kinetic-energy cutoff     =     100.0000  Ry
     charge density cutoff     =     400.0000  Ry
     scf convergence threshold =      1.0E-07
     mixing beta               =       0.2000
     number of iterations used =            8  plain     mixing
     Exchange-correlation= PBE
                           (   1   4   3   4   0   0   0)

     GPU acceleration is ACTIVE.  1 visible GPUs per MPI rank

     Message from routine print_cuda_info:
     High GPU oversubscription detected. Are you sure this is what you want?

     celldm(1)=  37.072249  celldm(2)=   0.000000  celldm(3)=   0.000000
     celldm(4)=   0.000000  celldm(5)=   0.000000  celldm(6)=   0.000000

     crystal axes: (cart. coord. in units of alat)
               a(1) = (   1.000000  -0.000027   0.000000 )  
               a(2) = (  -0.500023   0.866018   0.000000 )  
               a(3) = (   0.000000   0.000000   1.725375 )  

     reciprocal axes: (cart. coord. in units 2 pi/alat)
               b(1) = (  1.000015  0.577391 -0.000000 )  
               b(2) = (  0.000031  1.154728 -0.000000 )  
               b(3) = ( -0.000000 -0.000000  0.579584 )  


     PseudoPot. # 1 for Cr read from file:
     ./Cr.upf
     MD5 check sum: 41892f80c335c8b1e803fd21ab4016b0
     Pseudo is Norm-conserving + core correction, Zval = 14.0
     Generated using ONCVPSP code by D. R. Hamann
     Using radial grid of 1638 points,  6 beta functions with: 
                l(1) =   0
                l(2) =   0
                l(3) =   1
                l(4) =   1
                l(5) =   2
                l(6) =   2

     PseudoPot. # 2 for I  read from file:
     ./I.upf
     MD5 check sum: 9cb9d574a1900baf8aa34970b08b8049
     Pseudo is Norm-conserving + core correction, Zval =  7.0
     Generated using ONCVPSP code by D. R. Hamann
     Using radial grid of 1188 points,  8 beta functions with: 
                l(1) =   0
                l(2) =   0
                l(3) =   1
                l(4) =   1
                l(5) =   2
                l(6) =   2
                l(7) =   3
                l(8) =   3

     PseudoPot. # 3 for Cr read from file:
     ./Cr.upf
     MD5 check sum: 41892f80c335c8b1e803fd21ab4016b0
     Pseudo is Norm-conserving + core correction, Zval = 14.0
     Generated using ONCVPSP code by D. R. Hamann
     Using radial grid of 1638 points,  6 beta functions with: 
                l(1) =   0
                l(2) =   0
                l(3) =   1
                l(4) =   1
                l(5) =   2
                l(6) =   2

     PseudoPot. # 4 for I  read from file:
     ./I.upf
     MD5 check sum: 9cb9d574a1900baf8aa34970b08b8049
     Pseudo is Norm-conserving + core correction, Zval =  7.0
     Generated using ONCVPSP code by D. R. Hamann
     Using radial grid of 1188 points,  8 beta functions with: 
                l(1) =   0
                l(2) =   0
                l(3) =   1
                l(4) =   1
                l(5) =   2
                l(6) =   2
                l(7) =   3
                l(8) =   3

     atomic species   valence    mass     pseudopotential
     Cr1              14.00    52.00000     Cr( 1.00)
     I1                7.00   127.00000     I ( 1.00)
     Cr2              14.00    52.00000     Cr( 1.00)
     I2                7.00   127.00000     I ( 1.00)

     Starting magnetic structure 
     atomic species   magnetization
     Cr1             0.100
     I1              0.100
     Cr2             0.100
     I2              0.100

     No symmetry found



   Cartesian axes

     site n.     atom                  positions (alat units)
         1        I1     tau(   1) = (   0.2249060   0.1281230   0.5414485  )
         2        I1     tau(   2) = (   0.0545377   0.2265241   0.5414796  )
         3        I1     tau(   3) = (   0.0546017   0.0298078   0.5414967  )
         4        Cr1    tau(   4) = (  -0.0553143   0.2243766   0.6200427  )
         5        Cr1    tau(   5) = (   0.2780052   0.0319353   0.6200427  )
         6        I1     tau(   6) = (   0.1681633   0.2265080   0.6986396  )
         7        I1     tau(   7) = (  -0.0022811   0.1281710   0.6986584  )
         8        I1     tau(   8) = (   0.1681741   0.0297903   0.6986879  )
         9        I2     tau(   9) = (   0.0027206   0.1281288   1.0266855  )
        10        I2     tau(  10) = (   0.1656275   0.2265556   1.0267182  )
        11        I2     tau(  11) = (   0.1656928   0.0297697   1.0267352  )
        12        Cr2    tau(  12) = (   0.0557948   0.2243744   1.1053320  )
        13        Cr2    tau(  13) = (   0.0557840   0.0319402   1.1053320  )
        14        I2     tau(  14) = (  -0.0540783   0.2264802   1.1838779  )
        15        I2     tau(  15) = (   0.1088645   0.1281683   1.1838950  )
        16        I2     tau(  16) = (   0.2792668   0.0298200   1.1839258  )
        17        I1     tau(  17) = (   0.0582322   0.4167968   0.5414484  )
        18        I1     tau(  18) = (  -0.1121377   0.5151966   0.5414796  )
        19        I1     tau(  19) = (  -0.1120716   0.3184800   0.5414968  )
        20        Cr1    tau(  20) = (  -0.2219904   0.5130524   0.6200427  )
        21        Cr1    tau(  21) = (   0.1113312   0.3206099   0.6200428  )
        22        I1     tau(  22) = (   0.0014903   0.5151799   0.6986398  )
        23        I1     tau(  23) = (  -0.1689558   0.4168457   0.6986581  )
        24        I1     tau(  24) = (   0.0015002   0.3184629   0.6986878  )
        25        I2     tau(  25) = (  -0.1639538   0.4168031   1.0266853  )
        26        I2     tau(  26) = (  -0.0010461   0.5152275   1.0267176  )
        27        I2     tau(  27) = (  -0.0009820   0.3184435   1.0267353  )
        28        Cr2    tau(  28) = (  -0.1108776   0.5130480   1.1053319  )
        29        Cr2    tau(  29) = (  -0.1108912   0.3206156   1.1053319  )
        30        I2     tau(  30) = (  -0.2207511   0.5151517   1.1838781  )
        31        I2     tau(  31) = (  -0.0578089   0.4168417   1.1838952  )
        32        I2     tau(  32) = (   0.1125914   0.3184936   1.1839258  )
        33        I1     tau(  33) = (  -0.1084422   0.7054679   0.5414487  )
        34        I1     tau(  34) = (  -0.2788124   0.8038688   0.5414796  )
        35        I1     tau(  35) = (  -0.2787476   0.6071540   0.5414966  )
        36        Cr1    tau(  36) = (  -0.3886646   0.8017232   0.6200428  )
        37        Cr1    tau(  37) = (  -0.0553417   0.6092802   0.6200428  )
        38        I1     tau(  38) = (  -0.1651853   0.8038527   0.6986398  )
        39        I1     tau(  39) = (  -0.3356304   0.7055174   0.6986583  )
        40        I1     tau(  40) = (  -0.1651735   0.6071364   0.6986878  )
        41        I2     tau(  41) = (  -0.3306276   0.7054739   1.0266855  )
        42        I2     tau(  42) = (  -0.1677205   0.8038993   1.0267178  )
        43        I2     tau(  43) = (  -0.1676552   0.6071161   1.0267350  )
        44        Cr2    tau(  44) = (  -0.2775528   0.8017194   1.1053320  )
        45        Cr2    tau(  45) = (  -0.2775637   0.6092856   1.1053319  )
        46        I2     tau(  46) = (  -0.3874260   0.8038243   1.1838781  )
        47        I2     tau(  47) = (  -0.2244829   0.7055133   1.1838951  )
        48        I2     tau(  48) = (  -0.0540829   0.6071669   1.1839262  )
        49        I1     tau(  49) = (   0.5582409   0.1281140   0.5414489  )
        50        I1     tau(  50) = (   0.3878687   0.2265154   0.5414798  )
        51        I1     tau(  51) = (   0.3879339   0.0297982   0.5414967  )
        52        Cr1    tau(  52) = (   0.2780159   0.2243677   0.6200427  )
        53        Cr1    tau(  53) = (   0.6113390   0.0319245   0.6200427  )
        54        I1     tau(  54) = (   0.5014974   0.2264998   0.6986392  )
        55        I1     tau(  55) = (   0.3310506   0.1281625   0.6986582  )
        56        I1     tau(  56) = (   0.5015076   0.0297801   0.6986876  )
        57        I2     tau(  57) = (   0.3360558   0.1281201   1.0266859  )
        58        I2     tau(  58) = (   0.4989631   0.2265468   1.0267180  )
        59        I2     tau(  59) = (   0.4990273   0.0297610   1.0267353  )
        60        Cr2    tau(  60) = (   0.3891311   0.2243659   1.1053320  )
        61        Cr2    tau(  61) = (   0.3891182   0.0319307   1.1053320  )
        62        I2     tau(  62) = (   0.2792570   0.2264717   1.1838776  )
        63        I2     tau(  63) = (   0.4421992   0.1281589   1.1838950  )
        64        I2     tau(  64) = (   0.6126003   0.0298123   1.1839261  )
        65        I1     tau(  65) = (   0.3915654   0.4167889   0.5414487  )
        66        I1     tau(  66) = (   0.2211953   0.5151872   0.5414794  )
        67        I1     tau(  67) = (   0.2212601   0.3184715   0.5414968  )
        68        Cr1    tau(  68) = (   0.1113431   0.5130415   0.6200427  )
        69        Cr1    tau(  69) = (   0.4446628   0.3206005   0.6200427  )
        70        I1     tau(  70) = (   0.3348232   0.5151716   0.6986396  )
        71        I1     tau(  71) = (   0.1643774   0.4168359   0.6986584  )
        72        I1     tau(  72) = (   0.3348321   0.3184536   0.6986877  )
        73        I2     tau(  73) = (   0.1693804   0.4167947   1.0266857  )
        74        I2     tau(  74) = (   0.3322876   0.5152195   1.0267179  )
        75        I2     tau(  75) = (   0.3323522   0.3184341   1.0267355  )
        76        Cr2    tau(  76) = (   0.2224556   0.5130413   1.1053319  )
        77        Cr2    tau(  77) = (   0.2224428   0.3206061   1.1053320  )
        78        I2     tau(  78) = (   0.1125820   0.5151441   1.1838779  )
        79        I2     tau(  79) = (   0.2755240   0.4168337   1.1838949  )
        80        I2     tau(  80) = (   0.4459268   0.3184850   1.1839257  )
        81        I1     tau(  81) = (   0.2248915   0.7054600   0.5414487  )
        82        I1     tau(  82) = (   0.0545202   0.8038593   0.5414796  )
        83        I1     tau(  83) = (   0.0545865   0.6071441   0.5414966  )
        84        Cr1    tau(  84) = (  -0.0553330   0.8017135   0.6200427  )
        85        Cr1    tau(  85) = (   0.2779888   0.6092713   0.6200428  )
        86        I1     tau(  86) = (   0.1681500   0.8038431   0.6986395  )
        87        I1     tau(  87) = (  -0.0022973   0.7055080   0.6986582  )
        88        I1     tau(  88) = (   0.1681586   0.6071267   0.6986880  )
        89        I2     tau(  89) = (   0.0027058   0.7054664   1.0266855  )
        90        I2     tau(  90) = (   0.1656142   0.8038911   1.0267176  )
        91        I2     tau(  91) = (   0.1656771   0.6071083   1.0267351  )
        92        Cr2    tau(  92) = (   0.0557832   0.8017111   1.1053319  )
        93        Cr2    tau(  93) = (   0.0557676   0.6092778   1.1053319  )
        94        I2     tau(  94) = (  -0.0540911   0.8038152   1.1838779  )
        95        I2     tau(  95) = (   0.1088507   0.7055045   1.1838952  )
        96        I2     tau(  96) = (   0.2792517   0.6071590   1.1839261  )
        97        I1     tau(  97) = (   0.8915743   0.1281056   0.5414486  )
        98        I1     tau(  98) = (   0.7212036   0.2265071   0.5414799  )
        99        I1     tau(  99) = (   0.7212682   0.0297887   0.5414970  )
       100        Cr1    tau( 100) = (   0.6113508   0.2243600   0.6200427  )
       101        Cr1    tau( 101) = (   0.9446728   0.0319176   0.6200427  )
       102        I1     tau( 102) = (   0.8348322   0.2264903   0.6986394  )
       103        I1     tau( 103) = (   0.6643841   0.1281531   0.6986578  )
       104        I1     tau( 104) = (   0.8348418   0.0297719   0.6986878  )
       105        I2     tau( 105) = (   0.6693880   0.1281115   1.0266853  )
       106        I2     tau( 106) = (   0.8322956   0.2265372   1.0267178  )
       107        I2     tau( 107) = (   0.8323600   0.0297531   1.0267350  )
       108        Cr2    tau( 108) = (   0.7224639   0.2243557   1.1053319  )
       109        Cr2    tau( 109) = (   0.7224514   0.0319239   1.1053320  )
       110        I2     tau( 110) = (   0.6125903   0.2264621   1.1838779  )
       111        I2     tau( 111) = (   0.7755329   0.1281505   1.1838954  )
       112        I2     tau( 112) = (   0.9459325   0.0298032   1.1839259  )
       113        I1     tau( 113) = (   0.7249001   0.4167793   0.5414488  )
       114        I1     tau( 114) = (   0.5545287   0.5151797   0.5414796  )
       115        I1     tau( 115) = (   0.5545926   0.3184624   0.5414970  )
       116        Cr1    tau( 116) = (   0.4446766   0.5130346   0.6200427  )
       117        Cr1    tau( 117) = (   0.7779998   0.3205916   0.6200427  )
       118        I1     tau( 118) = (   0.6681568   0.5151634   0.6986396  )
       119        I1     tau( 119) = (   0.4977095   0.4168274   0.6986580  )
       120        I1     tau( 120) = (   0.6681679   0.3184449   0.6986874  )
       121        I2     tau( 121) = (   0.5027143   0.4167849   1.0266856  )
       122        I2     tau( 122) = (   0.6656209   0.5152093   1.0267177  )
       123        I2     tau( 123) = (   0.6656871   0.3184254   1.0267351  )
       124        Cr2    tau( 124) = (   0.5557887   0.5130310   1.1053319  )
       125        Cr2    tau( 125) = (   0.5557790   0.3205977   1.1053319  )
       126        I2     tau( 126) = (   0.4459157   0.5151351   1.1838781  )
       127        I2     tau( 127) = (   0.6088588   0.4168248   1.1838953  )
       128        I2     tau( 128) = (   0.7792580   0.3184762   1.1839260  )
       129        I1     tau( 129) = (   0.5582245   0.7054516   0.5414486  )
       130        I1     tau( 130) = (   0.3878555   0.8038511   0.5414794  )
       131        I1     tau( 131) = (   0.3879184   0.6071361   0.5414968  )
       132        Cr1    tau( 132) = (   0.2780039   0.8017046   0.6200428  )
       133        Cr1    tau( 133) = (   0.6113237   0.6092638   0.6200427  )
       134        I1     tau( 134) = (   0.5014824   0.8038349   0.6986397  )
       135        I1     tau( 135) = (   0.3310364   0.7054982   0.6986582  )
       136        I1     tau( 136) = (   0.5014926   0.6071188   0.6986880  )
       137        I2     tau( 137) = (   0.3360388   0.7054570   1.0266854  )
       138        I2     tau( 138) = (   0.4989457   0.8038817   1.0267178  )
       139        I2     tau( 139) = (   0.4990117   0.6070989   1.0267349  )
       140        Cr2    tau( 140) = (   0.3891132   0.8017025   1.1053319  )
       141        Cr2    tau( 141) = (   0.3891036   0.6092694   1.1053320  )
       142        I2     tau( 142) = (   0.2792404   0.8038071   1.1838781  )
       143        I2     tau( 143) = (   0.4421838   0.7054968   1.1838952  )
       144        I2     tau( 144) = (   0.6125848   0.6071493   1.1839260  )

     --------------------------------------------
     DFT-D3 Dispersion Correction (3-body terms):
     --------------------------------------------
       Reference C6 values for interpolation: 

         atom   Coordination number   C6
         Cr1        0.000          1381.48
         Cr1        1.827           571.38
         Cr1       10.619           306.69
         Cr2        0.000          1381.48
         Cr2        1.827           571.38
         Cr2       10.619           306.69
         I1         0.000           703.93
         I1         0.997           717.00
         I2         0.000           703.93
         I2         0.997           717.00

       Values used:

         atom   Coordination number  R0_AB[au]  C6      C8
         I1         4.278            3.532    717.00  65856.01
         I1         4.279            3.532    717.00  65856.01
         I1         4.279            3.532    717.00  65856.01
         Cr1        5.960            3.252    571.38  52732.00
         Cr1        5.960            3.252    571.38  52732.00
         I1         4.282            3.532    717.00  65856.01
         I1         4.282            3.532    717.00  65856.01
         I1         4.282            3.532    717.00  65856.01
         I2         4.282            3.532    717.00  65856.01
         I2         4.282            3.532    717.00  65856.01
         I2         4.282            3.532    717.00  65856.01
         Cr2        5.960            3.252    571.38  52732.00
         Cr2        5.960            3.252    571.38  52732.00
         I2         4.279            3.532    717.00  65856.01
         I2         4.279            3.532    717.00  65856.01
         I2         4.278            3.532    717.00  65856.01
         I1         4.278            3.532    717.00  65856.01
         I1         4.279            3.532    717.00  65856.01
         I1         4.279            3.532    717.00  65856.01
         Cr1        5.960            3.252    571.38  52732.00
         Cr1        5.960            3.252    571.38  52732.00
         I1         4.282            3.532    717.00  65856.01
         I1         4.282            3.532    717.00  65856.01
         I1         4.282            3.532    717.00  65856.01
         I2         4.282            3.532    717.00  65856.01
         I2         4.282            3.532    717.00  65856.01
         I2         4.282            3.532    717.00  65856.01
         Cr2        5.960            3.252    571.38  52732.00
         Cr2        5.960            3.252    571.38  52732.00
         I2         4.279            3.532    717.00  65856.01
         I2         4.279            3.532    717.00  65856.01
         I2         4.278            3.532    717.00  65856.01
         I1         4.278            3.532    717.00  65856.01
         I1         4.279            3.532    717.00  65856.01
         I1         4.279            3.532    717.00  65856.01
         Cr1        5.960            3.252    571.38  52732.00
         Cr1        5.960            3.252    571.38  52732.00
         I1         4.282            3.532    717.00  65856.01
         I1         4.282            3.532    717.00  65856.01
         I1         4.282            3.532    717.00  65856.01
         I2         4.282            3.532    717.00  65856.01
         I2         4.282            3.532    717.00  65856.01
         I2         4.282            3.532    717.00  65856.01
         Cr2        5.960            3.252    571.38  52732.00
         Cr2        5.960            3.252    571.38  52732.00
         I2         4.279            3.532    717.00  65856.01
         I2         4.279            3.532    717.00  65856.01
         I2         4.278            3.532    717.00  65856.01
         I1         4.278            3.532    717.00  65856.01
         I1         4.279            3.532    717.00  65856.01
         I1         4.279            3.532    717.00  65856.01
         Cr1        5.960            3.252    571.38  52732.00
         Cr1        5.959            3.252    571.38  52732.00
         I1         4.282            3.532    717.00  65856.01
         I1         4.282            3.532    717.00  65856.01
         I1         4.282            3.532    717.00  65856.01
         I2         4.282            3.532    717.00  65856.01
         I2         4.282            3.532    717.00  65856.01
         I2         4.282            3.532    717.00  65856.01
         Cr2        5.960            3.252    571.38  52732.00
         Cr2        5.959            3.252    571.38  52732.00
         I2         4.279            3.532    717.00  65856.01
         I2         4.279            3.532    717.00  65856.01
         I2         4.278            3.532    717.00  65856.01
         I1         4.278            3.532    717.00  65856.01
         I1         4.279            3.532    717.00  65856.01
         I1         4.279            3.532    717.00  65856.01
         Cr1        5.960            3.252    571.38  52732.00
         Cr1        5.959            3.252    571.38  52732.00
         I1         4.282            3.532    717.00  65856.01
         I1         4.282            3.532    717.00  65856.01
         I1         4.282            3.532    717.00  65856.01
         I2         4.282            3.532    717.00  65856.01
         I2         4.282            3.532    717.00  65856.01
         I2         4.282            3.532    717.00  65856.01
         Cr2        5.960            3.252    571.38  52732.00
         Cr2        5.959            3.252    571.38  52732.00
         I2         4.279            3.532    717.00  65856.01
         I2         4.279            3.532    717.00  65856.01
         I2         4.278            3.532    717.00  65856.01
         I1         4.278            3.532    717.00  65856.01
         I1         4.279            3.532    717.00  65856.01
         I1         4.279            3.532    717.00  65856.01
         Cr1        5.960            3.252    571.38  52732.00
         Cr1        5.960            3.252    571.38  52732.00
         I1         4.282            3.532    717.00  65856.01
         I1         4.282            3.532    717.00  65856.01
         I1         4.282            3.532    717.00  65856.01
         I2         4.282            3.532    717.00  65856.01
         I2         4.282            3.532    717.00  65856.01
         I2         4.282            3.532    717.00  65856.01
         Cr2        5.960            3.252    571.38  52732.00
         Cr2        5.960            3.252    571.38  52732.00
         I2         4.279            3.532    717.00  65856.01
         I2         4.279            3.532    717.00  65856.01
         I2         4.278            3.532    717.00  65856.01
         I1         4.278            3.532    717.00  65856.01
         I1         4.279            3.532    717.00  65856.01
         I1         4.279            3.532    717.00  65856.01
         Cr1        5.960            3.252    571.38  52732.00
         Cr1        5.960            3.252    571.38  52732.00
         I1         4.282            3.532    717.00  65856.01
         I1         4.282            3.532    717.00  65856.01
         I1         4.282            3.532    717.00  65856.01
         I2         4.282            3.532    717.00  65856.01
         I2         4.282            3.532    717.00  65856.01
         I2         4.282            3.532    717.00  65856.01
         Cr2        5.960            3.252    571.38  52732.00
         Cr2        5.960            3.252    571.38  52732.00
         I2         4.279            3.532    717.00  65856.01
         I2         4.279            3.532    717.00  65856.01
         I2         4.278            3.532    717.00  65856.01
         I1         4.278            3.532    717.00  65856.01
         I1         4.279            3.532    717.00  65856.01
         I1         4.279            3.532    717.00  65856.01
         Cr1        5.960            3.252    571.38  52732.00
         Cr1        5.959            3.252    571.38  52732.00
         I1         4.282            3.532    717.00  65856.01
         I1         4.282            3.532    717.00  65856.01
         I1         4.282            3.532    717.00  65856.01
         I2         4.282            3.532    717.00  65856.01
         I2         4.282            3.532    717.00  65856.01
         I2         4.282            3.532    717.00  65856.01
         Cr2        5.960            3.252    571.38  52732.00
         Cr2        5.960            3.252    571.38  52732.00
         I2         4.279            3.532    717.00  65856.01
         I2         4.279            3.532    717.00  65856.01
         I2         4.278            3.532    717.00  65856.01
         I1         4.278            3.532    717.00  65856.01
         I1         4.279            3.532    717.00  65856.01
         I1         4.279            3.532    717.00  65856.01
         Cr1        5.960            3.252    571.38  52732.00
         Cr1        5.960            3.252    571.38  52732.00
         I1         4.282            3.532    717.00  65856.01
         I1         4.282            3.532    717.00  65856.01
         I1         4.282            3.532    717.00  65856.01
         I2         4.282            3.532    717.00  65856.01
         I2         4.282            3.532    717.00  65856.01
         I2         4.282            3.532    717.00  65856.01
         Cr2        5.960            3.252    571.38  52732.00
         Cr2        5.960            3.252    571.38  52732.00
         I2         4.279            3.532    717.00  65856.01
         I2         4.279            3.532    717.00  65856.01
         I2         4.278            3.532    717.00  65856.01

         Molecular C6 ( Ry / a.u.^6 ) =  13954869.20


     number of k points=     4  Fermi-Dirac smearing, width (Ry)=  0.0032
                       cart. coord. in units 2pi/alat
        k(    1) = (   0.0000000   0.0000000   0.0000000), wk =   0.2500000
        k(    2) = (  -0.0000154  -0.5773641   0.0000000), wk =   0.2500000
        k(    3) = (  -0.5000077  -0.2886954   0.0000000), wk =   0.2500000
        k(    4) = (  -0.5000231  -0.8660594   0.0000000), wk =   0.2500000

     Dense  grid: 10284083 G-vectors     FFT dimensions: ( 240, 240, 432)

     Estimated max dynamical RAM per process >      34.87 GB

     Estimated total dynamical RAM >     278.95 GB
     Generating pointlists ...
     new r_m :   0.0557 (alat units)  2.0655 (a.u.) for type    1
     new r_m :   0.0557 (alat units)  2.0655 (a.u.) for type    2
     new r_m :   0.0557 (alat units)  2.0655 (a.u.) for type    3
     new r_m :   0.0557 (alat units)  2.0655 (a.u.) for type    4

     Initial potential from superposition of free atoms

     starting charge    1259.9403, renormalised to    1260.0000

     negative rho (up, down):  2.217E-04 1.814E-04
     Starting wfcs are  792 randomized atomic wfcs

     total cpu time spent up to now is       92.0 secs

     Self-consistent Calculation

     iteration #  1     ecut=   100.00 Ry     beta= 0.20
     Davidson diagonalization with overlap
     ethr =  1.00E-02,  avg # of iterations =  2.0

     total cpu time spent up to now is      286.1 secs

     total energy              =   -9210.00092022 Ry
     estimated scf accuracy    <      20.99890938 Ry

     total magnetization       =   106.39 Bohr mag/cell
     absolute magnetization    =   106.55 Bohr mag/cell

     iteration #  2     ecut=   100.00 Ry     beta= 0.20
     Davidson diagonalization with overlap
     ethr =  1.67E-03,  avg # of iterations =  2.0

     total cpu time spent up to now is      468.6 secs

     total energy              =   -9213.51246093 Ry
     estimated scf accuracy    <       6.98817876 Ry

     total magnetization       =   107.95 Bohr mag/cell
     absolute magnetization    =   108.61 Bohr mag/cell

     iteration #  3     ecut=   100.00 Ry     beta= 0.20
     Davidson diagonalization with overlap
     ethr =  5.55E-04,  avg # of iterations =  1.0

     total cpu time spent up to now is      636.3 secs

     total energy              =   -9214.96125348 Ry
     estimated scf accuracy    <       2.05384931 Ry

     total magnetization       =   108.00 Bohr mag/cell
     absolute magnetization    =   109.49 Bohr mag/cell

     iteration #  4     ecut=   100.00 Ry     beta= 0.20
     Davidson diagonalization with overlap
     ethr =  1.63E-04,  avg # of iterations =  2.6

     total cpu time spent up to now is      855.4 secs

     total energy              =   -9215.05553895 Ry
     estimated scf accuracy    <       1.94005463 Ry

     total magnetization       =   108.00 Bohr mag/cell
     absolute magnetization    =   118.67 Bohr mag/cell

     iteration #  5     ecut=   100.00 Ry     beta= 0.20
     Davidson diagonalization with overlap
     ethr =  1.54E-04,  avg # of iterations =  2.0

     negative rho (up, down):  3.410E-05 2.462E-05

     total cpu time spent up to now is     1052.8 secs

     total energy              =   -9215.69100927 Ry
     estimated scf accuracy    <       0.41088165 Ry

     total magnetization       =   108.00 Bohr mag/cell
     absolute magnetization    =   114.93 Bohr mag/cell

     iteration #  6     ecut=   100.00 Ry     beta= 0.20
     Davidson diagonalization with overlap
     ethr =  3.26E-05,  avg # of iterations =  2.6

     total cpu time spent up to now is     1279.0 secs

     total energy              =   -9215.79597062 Ry
     estimated scf accuracy    <       0.36714849 Ry

     total magnetization       =   108.00 Bohr mag/cell
     absolute magnetization    =   122.13 Bohr mag/cell

     iteration #  7     ecut=   100.00 Ry     beta= 0.20
     Davidson diagonalization with overlap
     ethr =  2.91E-05,  avg # of iterations =  2.0

     negative rho (up, down):  2.545E-07 3.937E-08

     total cpu time spent up to now is     1471.0 secs

     total energy              =   -9215.81551671 Ry
     estimated scf accuracy    <       0.05258641 Ry

     total magnetization       =   108.00 Bohr mag/cell
     absolute magnetization    =   122.34 Bohr mag/cell

     iteration #  8     ecut=   100.00 Ry     beta= 0.20
     Davidson diagonalization with overlap
     ethr =  4.17E-06,  avg # of iterations =  2.4

     negative rho (up, down):  2.558E-05 2.115E-05

     total cpu time spent up to now is     1672.3 secs

     total energy              =   -9215.83484841 Ry
     estimated scf accuracy    <       0.00694612 Ry

     total magnetization       =   108.00 Bohr mag/cell
     absolute magnetization    =   123.51 Bohr mag/cell

     iteration #  9     ecut=   100.00 Ry     beta= 0.20
     Davidson diagonalization with overlap
     ethr =  5.51E-07,  avg # of iterations =  2.9

     negative rho (up, down):  2.339E-05 2.194E-05

     total cpu time spent up to now is     1883.8 secs

     total energy              =   -9215.84276377 Ry
     estimated scf accuracy    <       0.01865092 Ry

     total magnetization       =   108.00 Bohr mag/cell
     absolute magnetization    =   124.30 Bohr mag/cell

     iteration # 10     ecut=   100.00 Ry     beta= 0.20
     Davidson diagonalization with overlap
     ethr =  5.51E-07,  avg # of iterations =  2.0

     negative rho (up, down):  1.241E-05 1.214E-05

     total cpu time spent up to now is     2056.8 secs

     total energy              =   -9215.83486511 Ry
     estimated scf accuracy    <       0.02038841 Ry

     total magnetization       =   108.00 Bohr mag/cell
     absolute magnetization    =   125.09 Bohr mag/cell

     iteration # 11     ecut=   100.00 Ry     beta= 0.20
     Davidson diagonalization with overlap
     ethr =  5.51E-07,  avg # of iterations =  2.1

     negative rho (up, down):  4.194E-06 4.924E-06

     total cpu time spent up to now is     2265.0 secs

     total energy              =   -9215.83835471 Ry
     estimated scf accuracy    <       0.00056749 Ry

     total magnetization       =   108.00 Bohr mag/cell
     absolute magnetization    =   125.95 Bohr mag/cell

     iteration # 12     ecut=   100.00 Ry     beta= 0.20
     Davidson diagonalization with overlap
     ethr =  4.50E-08,  avg # of iterations =  3.5

     negative rho (up, down):  3.995E-06 4.356E-06

     total cpu time spent up to now is     2476.7 secs

     total energy              =   -9215.83865388 Ry
     estimated scf accuracy    <       0.00019951 Ry

     total magnetization       =   108.00 Bohr mag/cell
     absolute magnetization    =   126.09 Bohr mag/cell

     iteration # 13     ecut=   100.00 Ry     beta= 0.20
     Davidson diagonalization with overlap
     ethr =  1.58E-08,  avg # of iterations =  2.3

     total cpu time spent up to now is     2691.6 secs

     total energy              =   -9215.83873766 Ry
     estimated scf accuracy    <       0.00029210 Ry

     total magnetization       =   108.00 Bohr mag/cell
     absolute magnetization    =   126.26 Bohr mag/cell

     iteration # 14     ecut=   100.00 Ry     beta= 0.20
     Davidson diagonalization with overlap
     ethr =  1.58E-08,  avg # of iterations =  2.0

     total cpu time spent up to now is     2895.0 secs

     total energy              =   -9215.83881332 Ry
     estimated scf accuracy    <       0.00000331 Ry

     total magnetization       =   108.00 Bohr mag/cell
     absolute magnetization    =   126.45 Bohr mag/cell

     iteration # 15     ecut=   100.00 Ry     beta= 0.20
     Davidson diagonalization with overlap
     ethr =  2.63E-10,  avg # of iterations =  4.3

     total cpu time spent up to now is     3131.2 secs

     total energy              =   -9215.83881494 Ry
     estimated scf accuracy    <       0.00000100 Ry

     total magnetization       =   108.00 Bohr mag/cell
     absolute magnetization    =   126.46 Bohr mag/cell

     iteration # 16     ecut=   100.00 Ry     beta= 0.20
     Davidson diagonalization with overlap
     ethr =  7.90E-11,  avg # of iterations =  2.0

     total cpu time spent up to now is     3308.4 secs

     total energy              =   -9215.83881528 Ry
     estimated scf accuracy    <       0.00000053 Ry

     total magnetization       =   108.00 Bohr mag/cell
     absolute magnetization    =   126.47 Bohr mag/cell

     iteration # 17     ecut=   100.00 Ry     beta= 0.20
     Davidson diagonalization with overlap
     ethr =  4.20E-11,  avg # of iterations =  2.0

     total cpu time spent up to now is     3523.0 secs

     total energy              =   -9215.83881547 Ry
     estimated scf accuracy    <       0.00000020 Ry

     total magnetization       =   108.00 Bohr mag/cell
     absolute magnetization    =   126.48 Bohr mag/cell

     iteration # 18     ecut=   100.00 Ry     beta= 0.20
     Davidson diagonalization with overlap
     ethr =  1.62E-11,  avg # of iterations =  3.0
 
     Magnetic moment per site  (integrated on atomic sphere of radius R)
     atom   1 (R=0.056)  charge=  3.9071  magn= -0.0400
     atom   2 (R=0.056)  charge=  3.9073  magn= -0.0399
     atom   3 (R=0.056)  charge=  3.9075  magn= -0.0400
     atom   4 (R=0.056)  charge= 12.3869  magn=  2.8653
     atom   5 (R=0.056)  charge= 12.3868  magn=  2.8655
     atom   6 (R=0.056)  charge=  3.9073  magn= -0.0401
     atom   7 (R=0.056)  charge=  3.9074  magn= -0.0401
     atom   8 (R=0.056)  charge=  3.9072  magn= -0.0401
     atom   9 (R=0.056)  charge=  3.9072  magn= -0.0401
     atom  10 (R=0.056)  charge=  3.9074  magn= -0.0400
     atom  11 (R=0.056)  charge=  3.9073  magn= -0.0401
     atom  12 (R=0.056)  charge= 12.3868  magn=  2.8653
     atom  13 (R=0.056)  charge= 12.3868  magn=  2.8655
     atom  14 (R=0.056)  charge=  3.9072  magn= -0.0400
     atom  15 (R=0.056)  charge=  3.9073  magn= -0.0399
     atom  16 (R=0.056)  charge=  3.9074  magn= -0.0400
     atom  17 (R=0.056)  charge=  3.9071  magn= -0.0400
     atom  18 (R=0.056)  charge=  3.9073  magn= -0.0399
     atom  19 (R=0.056)  charge=  3.9075  magn= -0.0400
     atom  20 (R=0.056)  charge= 12.3869  magn=  2.8653
     atom  21 (R=0.056)  charge= 12.3868  magn=  2.8655
     atom  22 (R=0.056)  charge=  3.9073  magn= -0.0401
     atom  23 (R=0.056)  charge=  3.9074  magn= -0.0401
     atom  24 (R=0.056)  charge=  3.9072  magn= -0.0401
     atom  25 (R=0.056)  charge=  3.9072  magn= -0.0401
     atom  26 (R=0.056)  charge=  3.9074  magn= -0.0400
     atom  27 (R=0.056)  charge=  3.9073  magn= -0.0401
     atom  28 (R=0.056)  charge= 12.3868  magn=  2.8653
     atom  29 (R=0.056)  charge= 12.3868  magn=  2.8655
     atom  30 (R=0.056)  charge=  3.9072  magn= -0.0399
     atom  31 (R=0.056)  charge=  3.9073  magn= -0.0399
     atom  32 (R=0.056)  charge=  3.9074  magn= -0.0400
     atom  33 (R=0.056)  charge=  3.9071  magn= -0.0400
     atom  34 (R=0.056)  charge=  3.9073  magn= -0.0399
     atom  35 (R=0.056)  charge=  3.9075  magn= -0.0400
     atom  36 (R=0.056)  charge= 12.3869  magn=  2.8653
     atom  37 (R=0.056)  charge= 12.3868  magn=  2.8655
     atom  38 (R=0.056)  charge=  3.9073  magn= -0.0401
     atom  39 (R=0.056)  charge=  3.9074  magn= -0.0401
     atom  40 (R=0.056)  charge=  3.9072  magn= -0.0401
     atom  41 (R=0.056)  charge=  3.9072  magn= -0.0401
     atom  42 (R=0.056)  charge=  3.9074  magn= -0.0400
     atom  43 (R=0.056)  charge=  3.9073  magn= -0.0401
     atom  44 (R=0.056)  charge= 12.3868  magn=  2.8653
     atom  45 (R=0.056)  charge= 12.3868  magn=  2.8655
     atom  46 (R=0.056)  charge=  3.9072  magn= -0.0399
     atom  47 (R=0.056)  charge=  3.9073  magn= -0.0399
     atom  48 (R=0.056)  charge=  3.9074  magn= -0.0400
     atom  49 (R=0.056)  charge=  3.9071  magn= -0.0400
     atom  50 (R=0.056)  charge=  3.9073  magn= -0.0399
     atom  51 (R=0.056)  charge=  3.9075  magn= -0.0400
     atom  52 (R=0.056)  charge= 12.3869  magn=  2.8653
     atom  53 (R=0.056)  charge= 12.3868  magn=  2.8655
     atom  54 (R=0.056)  charge=  3.9073  magn= -0.0401
     atom  55 (R=0.056)  charge=  3.9074  magn= -0.0401
     atom  56 (R=0.056)  charge=  3.9072  magn= -0.0401
     atom  57 (R=0.056)  charge=  3.9072  magn= -0.0401
     atom  58 (R=0.056)  charge=  3.9074  magn= -0.0400
     atom  59 (R=0.056)  charge=  3.9073  magn= -0.0401
     atom  60 (R=0.056)  charge= 12.3868  magn=  2.8653
     atom  61 (R=0.056)  charge= 12.3868  magn=  2.8655
     atom  62 (R=0.056)  charge=  3.9072  magn= -0.0400
     atom  63 (R=0.056)  charge=  3.9073  magn= -0.0399
     atom  64 (R=0.056)  charge=  3.9074  magn= -0.0400
     atom  65 (R=0.056)  charge=  3.9071  magn= -0.0400
     atom  66 (R=0.056)  charge=  3.9073  magn= -0.0399
     atom  67 (R=0.056)  charge=  3.9075  magn= -0.0400
     atom  68 (R=0.056)  charge= 12.3869  magn=  2.8653
     atom  69 (R=0.056)  charge= 12.3868  magn=  2.8655
     atom  70 (R=0.056)  charge=  3.9073  magn= -0.0401
     atom  71 (R=0.056)  charge=  3.9074  magn= -0.0401
     atom  72 (R=0.056)  charge=  3.9072  magn= -0.0401
     atom  73 (R=0.056)  charge=  3.9072  magn= -0.0401
     atom  74 (R=0.056)  charge=  3.9074  magn= -0.0400
     atom  75 (R=0.056)  charge=  3.9073  magn= -0.0401
     atom  76 (R=0.056)  charge= 12.3868  magn=  2.8653
     atom  77 (R=0.056)  charge= 12.3868  magn=  2.8655
     atom  78 (R=0.056)  charge=  3.9072  magn= -0.0400
     atom  79 (R=0.056)  charge=  3.9073  magn= -0.0399
     atom  80 (R=0.056)  charge=  3.9074  magn= -0.0400
     atom  81 (R=0.056)  charge=  3.9071  magn= -0.0400
     atom  82 (R=0.056)  charge=  3.9073  magn= -0.0399
     atom  83 (R=0.056)  charge=  3.9075  magn= -0.0400
     atom  84 (R=0.056)  charge= 12.3869  magn=  2.8653
     atom  85 (R=0.056)  charge= 12.3868  magn=  2.8655
     atom  86 (R=0.056)  charge=  3.9073  magn= -0.0401
     atom  87 (R=0.056)  charge=  3.9074  magn= -0.0401
     atom  88 (R=0.056)  charge=  3.9072  magn= -0.0401
     atom  89 (R=0.056)  charge=  3.9072  magn= -0.0401
     atom  90 (R=0.056)  charge=  3.9074  magn= -0.0400
     atom  91 (R=0.056)  charge=  3.9073  magn= -0.0401
     atom  92 (R=0.056)  charge= 12.3868  magn=  2.8653
     atom  93 (R=0.056)  charge= 12.3868  magn=  2.8655
     atom  94 (R=0.056)  charge=  3.9072  magn= -0.0400
     atom  95 (R=0.056)  charge=  3.9073  magn= -0.0399
     atom  96 (R=0.056)  charge=  3.9074  magn= -0.0400
     atom  97 (R=0.056)  charge=  3.9071  magn= -0.0400
     atom  98 (R=0.056)  charge=  3.9073  magn= -0.0399
     atom  99 (R=0.056)  charge=  3.9075  magn= -0.0400
     atom 100 (R=0.056)  charge= 12.3869  magn=  2.8653
     atom 101 (R=0.056)  charge= 12.3868  magn=  2.8655
     atom 102 (R=0.056)  charge=  3.9073  magn= -0.0401
     atom 103 (R=0.056)  charge=  3.9074  magn= -0.0401
     atom 104 (R=0.056)  charge=  3.9072  magn= -0.0401
     atom 105 (R=0.056)  charge=  3.9072  magn= -0.0401
     atom 106 (R=0.056)  charge=  3.9074  magn= -0.0400
     atom 107 (R=0.056)  charge=  3.9073  magn= -0.0401
     atom 108 (R=0.056)  charge= 12.3868  magn=  2.8653
     atom 109 (R=0.056)  charge= 12.3868  magn=  2.8655
     atom 110 (R=0.056)  charge=  3.9072  magn= -0.0400
     atom 111 (R=0.056)  charge=  3.9073  magn= -0.0399
     atom 112 (R=0.056)  charge=  3.9074  magn= -0.0400
     atom 113 (R=0.056)  charge=  3.9071  magn= -0.0400
     atom 114 (R=0.056)  charge=  3.9073  magn= -0.0399
     atom 115 (R=0.056)  charge=  3.9075  magn= -0.0400
     atom 116 (R=0.056)  charge= 12.3869  magn=  2.8653
     atom 117 (R=0.056)  charge= 12.3867  magn=  2.8655
     atom 118 (R=0.056)  charge=  3.9073  magn= -0.0401
     atom 119 (R=0.056)  charge=  3.9074  magn= -0.0401
     atom 120 (R=0.056)  charge=  3.9072  magn= -0.0401
     atom 121 (R=0.056)  charge=  3.9072  magn= -0.0401
     atom 122 (R=0.056)  charge=  3.9074  magn= -0.0400
     atom 123 (R=0.056)  charge=  3.9073  magn= -0.0401
     atom 124 (R=0.056)  charge= 12.3868  magn=  2.8653
     atom 125 (R=0.056)  charge= 12.3868  magn=  2.8655
     atom 126 (R=0.056)  charge=  3.9072  magn= -0.0399
     atom 127 (R=0.056)  charge=  3.9073  magn= -0.0399
     atom 128 (R=0.056)  charge=  3.9074  magn= -0.0400
     atom 129 (R=0.056)  charge=  3.9071  magn= -0.0400
     atom 130 (R=0.056)  charge=  3.9073  magn= -0.0399
     atom 131 (R=0.056)  charge=  3.9075  magn= -0.0400
     atom 132 (R=0.056)  charge= 12.3869  magn=  2.8653
     atom 133 (R=0.056)  charge= 12.3868  magn=  2.8655
     atom 134 (R=0.056)  charge=  3.9073  magn= -0.0401
     atom 135 (R=0.056)  charge=  3.9074  magn= -0.0401
     atom 136 (R=0.056)  charge=  3.9072  magn= -0.0401
     atom 137 (R=0.056)  charge=  3.9072  magn= -0.0401
     atom 138 (R=0.056)  charge=  3.9074  magn= -0.0400
     atom 139 (R=0.056)  charge=  3.9073  magn= -0.0401
     atom 140 (R=0.056)  charge= 12.3868  magn=  2.8653
     atom 141 (R=0.056)  charge= 12.3868  magn=  2.8655
     atom 142 (R=0.056)  charge=  3.9072  magn= -0.0399
     atom 143 (R=0.056)  charge=  3.9073  magn= -0.0399
     atom 144 (R=0.056)  charge=  3.9074  magn= -0.0400

     total cpu time spent up to now is     3722.8 secs

     End of self-consistent calculation

 ------ SPIN UP ------------


          k = 0.0000 0.0000 0.0000 (****** PWs)   bands (ev):

   -73.5262 -73.5262 -73.5262 -73.5262 -73.5261 -73.5261 -73.5261 -73.5261
   -73.5261 -73.5261 -73.5261 -73.5261 -73.5261 -73.5261 -73.5261 -73.5261
   -73.5261 -73.5261 -73.5258 -73.5258 -73.5258 -73.5258 -73.5258 -73.5258
   -73.5258 -73.5258 -73.5258 -73.5257 -73.5257 -73.5257 -73.5257 -73.5257
   -73.5257 -73.5257 -73.5257 -73.5257 -44.9454 -44.9454 -44.9450 -44.9450
   -44.9450 -44.9450 -44.9450 -44.9450 -44.9450 -44.9450 -44.9450 -44.9450
   -44.9450 -44.9450 -44.9445 -44.9445 -44.9445 -44.9445 -44.9443 -44.9443
   -44.9443 -44.9443 -44.9439 -44.9439 -44.9439 -44.9439 -44.9439 -44.9439
   -44.9439 -44.9439 -44.9439 -44.9439 -44.9439 -44.9439 -44.9435 -44.9435
   -44.9389 -44.9389 -44.9389 -44.9389 -44.9387 -44.9387 -44.9387 -44.9387
   -44.9386 -44.9386 -44.9386 -44.9386 -44.9386 -44.9386 -44.9386 -44.9386
   -44.9384 -44.9384 -44.9383 -44.9383 -44.9374 -44.9374 -44.9374 -44.9374
   -44.9374 -44.9374 -44.9374 -44.9374 -44.9374 -44.9374 -44.9374 -44.9373
   -44.9358 -44.9358 -44.9358 -44.9358 -44.9355 -44.9355 -44.9355 -44.9355
   -44.9339 -44.9339 -44.9339 -44.9339 -44.9339 -44.9339 -44.9339 -44.9339
   -44.9339 -44.9339 -44.9339 -44.9338 -44.9330 -44.9330 -44.9329 -44.9329
   -44.9327 -44.9327 -44.9327 -44.9327 -44.9326 -44.9326 -44.9326 -44.9326
   -44.9326 -44.9326 -44.9326 -44.9326 -44.9324 -44.9324 -44.9324 -44.9324
   -14.3558 -14.3556 -14.0592 -14.0592 -14.0591 -14.0591 -14.0591 -14.0591
   -14.0590 -14.0590 -14.0589 -14.0589 -14.0589 -14.0589 -13.6329 -13.6329
   -13.6328 -13.6328 -13.6321 -13.6321 -13.6320 -13.6320 -13.4699 -13.4695
   -13.3315 -13.3315 -13.3313 -13.3313 -13.3297 -13.3297 -13.3297 -13.3297
   -13.3295 -13.3295 -13.3295 -13.3295 -13.3295 -13.3295 -13.3293 -13.3293
   -13.2905 -13.2905 -13.2904 -13.2904 -13.2904 -13.2904 -13.2902 -13.2902
   -13.2901 -13.2901 -13.2901 -13.2901 -13.0637 -13.0637 -13.0635 -13.0635
   -13.0627 -13.0627 -13.0625 -13.0625 -13.0622 -13.0622 -13.0622 -13.0622
   -13.0621 -13.0621 -13.0620 -13.0620 -13.0620 -13.0620 -13.0619 -13.0619
   -13.0138 -13.0137 -13.0136 -13.0136 -12.9602 -12.9602 -12.9602 -12.9602
   -12.9602 -12.9602 -12.9600 -12.9600 -12.9600 -12.9600 -12.9599 -12.9599
   -12.9353 -12.9353 -12.9352 -12.9352 -12.9352 -12.9352 -12.9351 -12.9351
   -12.9350 -12.9350 -12.9350 -12.9350 -12.9238 -12.9238 -12.9236 -12.9235
   -12.8900 -12.8899 -12.8897 -12.8896  -5.9525  -5.9525  -5.9524  -5.9524
    -5.9523  -5.9523  -5.9522  -5.9522  -5.9520  -5.9520  -5.9520  -5.9520
    -5.8027  -5.8027  -5.4927  -5.4840  -5.4125  -5.4125  -5.4121  -5.4121
    -5.4117  -5.4117  -5.4111  -5.4111  -5.3085  -5.3085  -5.3080  -5.3080
    -5.3077  -5.3077  -5.3047  -5.3047  -5.3040  -5.3039  -5.3037  -5.3037
    -5.0841  -5.0841  -5.0838  -5.0838  -5.0837  -5.0837  -5.0836  -5.0836
    -5.0833  -5.0833  -5.0833  -5.0833  -5.0640  -5.0640  -5.0626  -5.0626
    -4.9323  -4.9323  -4.9321  -4.9321  -4.9318  -4.9318  -4.9304  -4.9304
    -4.9302  -4.9302  -4.9301  -4.9301  -4.9144  -4.9144  -4.9125  -4.9124
    -4.8706  -4.8702  -4.8685  -4.8682  -4.8132  -4.8132  -4.8130  -4.8130
    -4.8127  -4.8127  -4.8109  -4.8109  -4.8106  -4.8106  -4.8098  -4.8098
    -4.8094  -4.8094  -4.8094  -4.8094  -4.8092  -4.8092  -4.8090  -4.8090
    -4.4171  -4.4171  -4.4165  -4.4165  -4.3277  -4.3277  -4.3267  -4.3267
    -4.3237  -4.3237  -4.3226  -4.3226  -4.3200  -4.3200  -4.2838  -4.2834
    -4.2403  -4.2403  -4.2397  -4.2397  -4.2395  -4.2395  -4.2376  -4.2376
    -4.2374  -4.2374  -4.2369  -4.2369  -4.2163  -4.2163  -4.2163  -4.2163
    -4.2161  -4.2161  -4.2139  -4.2138  -4.2136  -4.2136  -4.2134  -4.2134
    -3.8786  -3.8786  -3.8784  -3.8784  -3.8773  -3.8773  -3.8768  -3.8768
    -3.8767  -3.8767  -3.8757  -3.8757  -3.8563  -3.8563  -3.8560  -3.8560
    -3.8560  -3.8560  -3.8559  -3.8559  -3.8559  -3.8559  -3.8557  -3.8557
    -3.7907  -3.7903  -3.7889  -3.7885  -3.7879  -3.7879  -3.7879  -3.7879
    -3.7685  -3.7685  -3.7629  -3.7629  -3.6492  -3.6492  -3.6477  -3.6477
    -3.6474  -3.6474  -3.6460  -3.6460  -3.6456  -3.6456  -3.6445  -3.6445
    -3.4962  -3.4960  -3.4915  -3.4913  -3.3356  -3.3336  -3.2242  -3.2242
    -3.2238  -3.2238  -3.2232  -3.2232  -3.2230  -3.2230  -3.2227  -3.2227
    -3.2226  -3.2226  -3.1566  -3.1566  -3.1554  -3.1554  -3.1543  -3.1543
    -3.1530  -3.1530  -3.1519  -3.1519  -3.1517  -3.1517  -3.0804  -3.0804
    -3.0798  -3.0798  -3.0795  -3.0795  -3.0786  -3.0786  -3.0777  -3.0777
    -3.0776  -3.0775  -2.9553  -2.9553  -2.9543  -2.9543  -2.9522  -2.9522
    -2.9502  -2.9502  -2.8599  -2.8599  -2.8598  -2.8598  -2.8171  -2.8171
    -2.8168  -2.8168  -2.8166  -2.8166  -2.8164  -2.8164  -2.8162  -2.8162
    -2.8162  -2.8162  -2.6896  -2.6896  -2.6892  -2.6892  -2.6888  -2.6888
    -2.6886  -2.6886  -2.6106  -2.6106  -2.6084  -2.6084  -2.6080  -2.6080
    -2.6056  -2.6056  -2.6052  -2.6052  -2.6023  -2.6023  -2.4451  -2.4451
    -2.4450  -2.4450  -2.4448  -2.4448  -2.4445  -2.4445  -2.4443  -2.4443
    -2.4440  -2.4440  -2.3513  -2.3513  -2.3479  -2.3479  -2.3360  -2.3181
    -2.3180  -2.3144  -2.3143  -2.2959  -2.2080  -2.2080  -2.2072  -2.2072
    -2.2043  -2.2043  -2.2030  -2.2030  -2.1069  -2.1069  -2.0387  -2.0387
    -2.0386  -2.0386  -2.0384  -2.0384  -2.0375  -2.0375  -2.0373  -2.0373
    -2.0371  -2.0371  -1.9009  -1.9009  -1.9008  -1.9008  -1.9006  -1.9006
    -1.8795  -1.8795  -1.8793  -1.8793  -1.8793  -1.8793  -1.8089  -1.8002
    -1.7415  -1.7415  -1.7401  -1.7401  -1.7091  -1.7091  -1.7087  -1.7086
    -1.7082  -1.7082  -1.7079  -1.7078  -1.7078  -1.7078  -1.7074  -1.7074
    -1.6712  -1.6712  -1.6710  -1.6710  -1.6710  -1.6710  -1.6697  -1.6697
    -1.6695  -1.6695  -1.6694  -1.6694  -1.6589  -1.6589  -1.6589  -1.6589
    -1.6190  -1.6186  -1.6174  -1.6170  -1.5361  -1.5361  -1.5329  -1.5329
    -1.5319  -1.5319  -1.5319  -1.5319  -1.5310  -1.5310  -1.5287  -1.5287
    -1.5225  -1.5220  -1.5202  -1.5197  -1.4918  -1.4918  -1.4912  -1.4912
    -1.4903  -1.4903  -1.4889  -1.4889  -1.4879  -1.4879  -1.4865  -1.4865
    -1.3848  -1.3848  -1.3834  -1.3834  -1.3792  -1.3792  -1.3772  -1.3772
    -1.2909  -1.2909  -1.2901  -1.2901  -1.2900  -1.2900  -1.2850  -1.2850
    -1.2849  -1.2849  -1.2839  -1.2839  -1.1697  -1.1697  -1.1684  -1.1684
    -1.1633  -1.1633  -1.1609  -1.1609  -0.9906  -0.9905  -0.9902  -0.9902
    -0.9902  -0.9901  -0.9878  -0.9878  -0.9878  -0.9877  -0.9876  -0.9875
    -0.8449  -0.8448  -0.8447  -0.8445   0.3393   0.3393   0.3405   0.3405
     0.3411   0.3411   0.3428   0.3428   0.3435   0.3435   0.3456   0.3457
     0.3607   0.3612   0.3662   0.3668   0.4552   0.4552   0.4690   0.4690
     0.4801   0.4802   0.4812   0.4812   0.4824   0.4824   0.4875   0.4875
     0.4882   0.4882   0.4887   0.4887   0.5880   0.5880   0.5902   0.5902
     0.5905   0.5905   0.5978   0.5978   0.5981   0.5981   0.5999   0.5999
     0.6325   0.6325   0.6350   0.6350   0.6399   0.6400   0.6416   0.6416
     0.6831   0.6831   0.6833   0.6833   0.6839   0.6840   0.6869   0.6869
     0.6877   0.6877   0.6885   0.6885   0.8385   0.8385   0.8389   0.8389
     0.9346   0.9352   0.9361   0.9362

          k =-0.0000-0.5774 0.0000 (****** PWs)   bands (ev):

   -73.5262 -73.5262 -73.5262 -73.5262 -73.5262 -73.5262 -73.5262 -73.5261
   -73.5261 -73.5261 -73.5261 -73.5261 -73.5261 -73.5261 -73.5261 -73.5261
   -73.5261 -73.5261 -73.5258 -73.5258 -73.5258 -73.5258 -73.5258 -73.5258
   -73.5258 -73.5258 -73.5258 -73.5258 -73.5257 -73.5257 -73.5257 -73.5257
   -73.5257 -73.5257 -73.5257 -73.5257 -44.9453 -44.9453 -44.9453 -44.9452
   -44.9451 -44.9451 -44.9451 -44.9450 -44.9448 -44.9448 -44.9448 -44.9448
   -44.9448 -44.9448 -44.9448 -44.9447 -44.9447 -44.9447 -44.9441 -44.9441
   -44.9441 -44.9441 -44.9441 -44.9441 -44.9441 -44.9441 -44.9441 -44.9441
   -44.9438 -44.9438 -44.9438 -44.9438 -44.9436 -44.9436 -44.9436 -44.9436
   -44.9388 -44.9388 -44.9388 -44.9388 -44.9388 -44.9388 -44.9388 -44.9388
   -44.9387 -44.9387 -44.9386 -44.9386 -44.9386 -44.9386 -44.9384 -44.9384
   -44.9384 -44.9384 -44.9381 -44.9381 -44.9381 -44.9381 -44.9375 -44.9375
   -44.9375 -44.9375 -44.9370 -44.9370 -44.9368 -44.9367 -44.9367 -44.9367
   -44.9367 -44.9367 -44.9367 -44.9367 -44.9346 -44.9346 -44.9346 -44.9346
   -44.9345 -44.9345 -44.9345 -44.9345 -44.9344 -44.9344 -44.9338 -44.9338
   -44.9338 -44.9337 -44.9333 -44.9333 -44.9333 -44.9333 -44.9328 -44.9328
   -44.9328 -44.9328 -44.9327 -44.9327 -44.9327 -44.9327 -44.9325 -44.9325
   -44.9325 -44.9325 -44.9325 -44.9325 -44.9325 -44.9325 -44.9325 -44.9325
   -14.2776 -14.2776 -14.2774 -14.2774 -14.1287 -14.1287 -14.1285 -14.1285
   -13.8692 -13.8692 -13.8690 -13.8690 -13.8689 -13.8689 -13.8687 -13.8687
   -13.8237 -13.8235 -13.5949 -13.5947 -13.4785 -13.4785 -13.4784 -13.4784
   -13.4781 -13.4781 -13.4779 -13.4779 -13.4216 -13.4216 -13.4212 -13.4212
   -13.3320 -13.3320 -13.3316 -13.3316 -13.2000 -13.2000 -13.1998 -13.1998
   -13.1979 -13.1979 -13.1979 -13.1979 -13.1978 -13.1978 -13.1977 -13.1977
   -13.1819 -13.1819 -13.1816 -13.1816 -13.1816 -13.1816 -13.1813 -13.1813
   -13.1344 -13.1341 -13.1081 -13.1081 -13.1079 -13.1079 -13.0972 -13.0969
   -13.0920 -13.0918 -13.0486 -13.0486 -13.0484 -13.0484 -13.0211 -13.0211
   -13.0208 -13.0208 -13.0208 -13.0208 -13.0205 -13.0205 -12.9868 -12.9868
   -12.9866 -12.9866 -12.9565 -12.9563 -12.9541 -12.9541 -12.9539 -12.9539
   -12.9538 -12.9538 -12.9537 -12.9537 -12.9261 -12.9261 -12.9259 -12.9259
   -12.9120 -12.9120 -12.9118 -12.9118 -12.8950 -12.8950 -12.8948 -12.8947
   -12.8844 -12.8844 -12.8842 -12.8842  -6.0108  -6.0106  -5.8560  -5.8560
    -5.8559  -5.8559  -5.8349  -5.8349  -5.8347  -5.8347  -5.8130  -5.8130
    -5.8129  -5.8129  -5.8127  -5.8127  -5.8126  -5.8126  -5.4690  -5.4690
    -5.4642  -5.4642  -5.4623  -5.4623  -5.4609  -5.4609  -5.2707  -5.2707
    -5.2699  -5.2699  -5.2687  -5.2687  -5.2678  -5.2678  -5.1385  -5.1382
    -5.1244  -5.1206  -5.0513  -5.0513  -5.0508  -5.0508  -5.0507  -5.0507
    -5.0502  -5.0502  -5.0457  -5.0457  -5.0420  -5.0420  -5.0070  -5.0070
    -5.0048  -5.0048  -5.0036  -5.0036  -5.0028  -5.0028  -4.9925  -4.9925
    -4.9920  -4.9920  -4.9334  -4.9334  -4.9328  -4.9328  -4.9129  -4.9129
    -4.9126  -4.9126  -4.9107  -4.9107  -4.9103  -4.9103  -4.8964  -4.8964
    -4.8941  -4.8941  -4.7881  -4.7852  -4.6204  -4.6204  -4.6199  -4.6199
    -4.6166  -4.6166  -4.6160  -4.6160  -4.5911  -4.5911  -4.5900  -4.5900
    -4.5055  -4.5055  -4.5055  -4.5054  -4.5032  -4.5032  -4.5032  -4.5032
    -4.4529  -4.4471  -4.4468  -4.4446  -4.2892  -4.2858  -4.2766  -4.2766
    -4.2742  -4.2742  -4.2476  -4.2476  -4.2473  -4.2473  -4.2446  -4.2446
    -4.2443  -4.2443  -4.1683  -4.1683  -4.1681  -4.1680  -4.1556  -4.1556
    -4.1534  -4.1534  -3.9749  -3.9749  -3.9739  -3.9739  -3.9175  -3.9175
    -3.9170  -3.9170  -3.9169  -3.9169  -3.9165  -3.9165  -3.9128  -3.9128
    -3.9102  -3.9102  -3.9058  -3.9042  -3.8887  -3.8887  -3.8884  -3.8884
    -3.8136  -3.8136  -3.8132  -3.8132  -3.8131  -3.8131  -3.8127  -3.8127
    -3.7826  -3.7826  -3.7809  -3.7809  -3.7462  -3.7462  -3.7452  -3.7452
    -3.6788  -3.6788  -3.6787  -3.6787  -3.6755  -3.6754  -3.6753  -3.6753
    -3.6540  -3.6540  -3.6333  -3.6333  -3.6277  -3.6277  -3.6242  -3.6185
    -3.6120  -3.6119  -3.5397  -3.5396  -3.5347  -3.5346  -3.3624  -3.3623
    -3.3575  -3.3575  -3.3514  -3.3514  -3.3512  -3.3512  -3.3509  -3.3509
    -3.3506  -3.3506  -3.3460  -3.3460  -3.3458  -3.3458  -3.3020  -3.3000
    -3.2063  -3.2063  -3.2014  -3.2014  -3.1876  -3.1876  -3.1859  -3.1858
    -3.1584  -3.1584  -3.1576  -3.1576  -3.0938  -3.0938  -3.0926  -3.0926
    -3.0900  -3.0900  -3.0888  -3.0888  -3.0601  -3.0531  -2.9325  -2.9324
    -2.9320  -2.9320  -2.9317  -2.9317  -2.9313  -2.9313  -2.7114  -2.7114
    -2.7094  -2.7094  -2.6703  -2.6703  -2.6699  -2.6699  -2.6681  -2.6681
    -2.6676  -2.6676  -2.5396  -2.5396  -2.5378  -2.5378  -2.5141  -2.5141
    -2.5085  -2.5085  -2.5078  -2.5078  -2.5061  -2.5061  -2.5054  -2.5054
    -2.5029  -2.5028  -2.4751  -2.4751  -2.4733  -2.4730  -2.4727  -2.4727
    -2.4375  -2.4278  -2.3893  -2.3893  -2.3891  -2.3891  -2.3890  -2.3889
    -2.3888  -2.3888  -2.3683  -2.3680  -2.3288  -2.3288  -2.3273  -2.3273
    -2.2049  -2.2049  -2.2045  -2.2045  -2.2030  -2.2030  -2.2026  -2.2026
    -2.1795  -2.1780  -2.1661  -2.1661  -2.1660  -2.1660  -2.1351  -2.1351
    -2.1345  -2.1345  -2.1091  -2.1091  -2.0828  -2.0827  -2.0821  -2.0821
    -2.0801  -2.0801  -2.0746  -2.0746  -2.0739  -2.0739  -2.0230  -2.0163
    -1.9529  -1.9529  -1.9495  -1.9495  -1.9362  -1.9362  -1.9102  -1.9102
    -1.7410  -1.7396  -1.7144  -1.7126  -1.7118  -1.7118  -1.7115  -1.7115
    -1.7104  -1.7104  -1.7101  -1.7101  -1.7022  -1.7022  -1.6998  -1.6998
    -1.6962  -1.6962  -1.6954  -1.6954  -1.6953  -1.6953  -1.6945  -1.6945
    -1.6882  -1.6882  -1.6867  -1.6867  -1.6639  -1.6639  -1.6601  -1.6601
    -1.6508  -1.6508  -1.6481  -1.6481  -1.5758  -1.5758  -1.5727  -1.5727
    -1.5596  -1.5527  -1.4889  -1.4889  -1.4854  -1.4854  -1.4725  -1.4725
    -1.4698  -1.4698  -1.4525  -1.4525  -1.4525  -1.4525  -1.4438  -1.4438
    -1.4436  -1.4436  -1.3872  -1.3872  -1.3822  -1.3822  -1.3815  -1.3805
    -1.3805  -1.3799  -1.3799  -1.3784  -1.3784  -1.3777  -1.3776  -1.3701
    -1.3444  -1.3368  -1.3282  -1.3282  -1.3282  -1.3282  -1.3224  -1.3224
    -1.3223  -1.3223  -1.2741  -1.2741  -1.2685  -1.2685  -1.0923  -1.0908
    -1.0908  -1.0858  -1.0858  -1.0851  -1.0539  -1.0539  -1.0535  -1.0535
    -1.0504  -1.0504  -1.0500  -1.0500  -0.9206  -0.9206  -0.9198  -0.9198
    -0.8676  -0.8676  -0.8676  -0.8676   0.2791   0.2791   0.2866   0.2866
     0.3289   0.3333   0.3558   0.3558   0.3621   0.3621   0.3991   0.3991
     0.4046   0.4046   0.4109   0.4109   0.4110   0.4110   0.4164   0.4164
     0.4167   0.4167   0.4880   0.4880   0.4882   0.4882   0.4978   0.4979
     0.4979   0.4979   0.5080   0.5080   0.5137   0.5137   0.5162   0.5162
     0.5245   0.5245   0.5443   0.5628   0.5638   0.5733   0.6815   0.6815
     0.6830   0.6830   0.6832   0.6832   0.6862   0.6862   0.6883   0.6883
     0.6886   0.6886   0.7096   0.7150   0.7154   0.7154   0.7154   0.7154
     0.7161   0.7161   0.7161   0.7161   0.8307   0.8307   0.8341   0.8341
     0.8724   0.8724   0.8739   0.8739

          k =-0.5000-0.2887 0.0000 (****** PWs)   bands (ev):

   -73.5262 -73.5262 -73.5262 -73.5262 -73.5262 -73.5262 -73.5262 -73.5261
   -73.5261 -73.5261 -73.5261 -73.5261 -73.5261 -73.5261 -73.5261 -73.5261
   -73.5261 -73.5261 -73.5258 -73.5258 -73.5258 -73.5258 -73.5258 -73.5258
   -73.5258 -73.5258 -73.5258 -73.5258 -73.5257 -73.5257 -73.5257 -73.5257
   -73.5257 -73.5257 -73.5257 -73.5257 -44.9453 -44.9453 -44.9453 -44.9452
   -44.9451 -44.9451 -44.9451 -44.9451 -44.9448 -44.9448 -44.9448 -44.9448
   -44.9448 -44.9448 -44.9447 -44.9447 -44.9447 -44.9447 -44.9441 -44.9441
   -44.9441 -44.9441 -44.9441 -44.9441 -44.9441 -44.9441 -44.9441 -44.9441
   -44.9438 -44.9438 -44.9438 -44.9438 -44.9436 -44.9436 -44.9436 -44.9436
   -44.9388 -44.9388 -44.9388 -44.9388 -44.9388 -44.9388 -44.9388 -44.9388
   -44.9387 -44.9387 -44.9386 -44.9386 -44.9386 -44.9386 -44.9384 -44.9384
   -44.9384 -44.9384 -44.9381 -44.9381 -44.9381 -44.9381 -44.9375 -44.9375
   -44.9375 -44.9375 -44.9370 -44.9370 -44.9368 -44.9368 -44.9367 -44.9367
   -44.9367 -44.9367 -44.9367 -44.9367 -44.9346 -44.9346 -44.9346 -44.9346
   -44.9345 -44.9345 -44.9345 -44.9345 -44.9344 -44.9344 -44.9338 -44.9338
   -44.9338 -44.9337 -44.9333 -44.9333 -44.9333 -44.9333 -44.9328 -44.9328
   -44.9328 -44.9328 -44.9327 -44.9327 -44.9327 -44.9327 -44.9325 -44.9325
   -44.9325 -44.9325 -44.9325 -44.9325 -44.9325 -44.9325 -44.9325 -44.9325
   -14.2776 -14.2776 -14.2774 -14.2774 -14.1287 -14.1287 -14.1285 -14.1285
   -13.8692 -13.8692 -13.8690 -13.8690 -13.8689 -13.8689 -13.8687 -13.8687
   -13.8237 -13.8235 -13.5948 -13.5947 -13.4786 -13.4786 -13.4784 -13.4784
   -13.4781 -13.4781 -13.4779 -13.4779 -13.4216 -13.4216 -13.4212 -13.4212
   -13.3320 -13.3320 -13.3316 -13.3316 -13.2000 -13.2000 -13.1999 -13.1999
   -13.1979 -13.1979 -13.1979 -13.1979 -13.1978 -13.1978 -13.1977 -13.1977
   -13.1819 -13.1819 -13.1816 -13.1816 -13.1815 -13.1815 -13.1813 -13.1813
   -13.1343 -13.1342 -13.1081 -13.1081 -13.1080 -13.1080 -13.0970 -13.0970
   -13.0920 -13.0919 -13.0486 -13.0486 -13.0484 -13.0484 -13.0211 -13.0211
   -13.0209 -13.0209 -13.0208 -13.0208 -13.0205 -13.0205 -12.9868 -12.9868
   -12.9867 -12.9867 -12.9566 -12.9564 -12.9541 -12.9541 -12.9539 -12.9539
   -12.9538 -12.9538 -12.9537 -12.9537 -12.9261 -12.9261 -12.9260 -12.9260
   -12.9119 -12.9119 -12.9118 -12.9118 -12.8950 -12.8950 -12.8948 -12.8948
   -12.8844 -12.8844 -12.8842 -12.8842  -6.0109  -6.0104  -5.8561  -5.8561
    -5.8558  -5.8558  -5.8349  -5.8349  -5.8347  -5.8347  -5.8129  -5.8129
    -5.8129  -5.8129  -5.8128  -5.8128  -5.8126  -5.8126  -5.4689  -5.4689
    -5.4642  -5.4642  -5.4623  -5.4623  -5.4609  -5.4609  -5.2705  -5.2705
    -5.2700  -5.2700  -5.2690  -5.2690  -5.2678  -5.2678  -5.1386  -5.1382
    -5.1235  -5.1216  -5.0515  -5.0515  -5.0509  -5.0509  -5.0506  -5.0506
    -5.0500  -5.0500  -5.0450  -5.0450  -5.0429  -5.0429  -5.0070  -5.0070
    -5.0049  -5.0049  -5.0034  -5.0034  -5.0030  -5.0030  -4.9927  -4.9927
    -4.9918  -4.9918  -4.9333  -4.9333  -4.9328  -4.9328  -4.9123  -4.9123
    -4.9123  -4.9123  -4.9114  -4.9114  -4.9106  -4.9106  -4.8963  -4.8963
    -4.8940  -4.8940  -4.7871  -4.7859  -4.6205  -4.6205  -4.6198  -4.6198
    -4.6166  -4.6166  -4.6162  -4.6162  -4.5909  -4.5909  -4.5903  -4.5903
    -4.5056  -4.5055  -4.5054  -4.5054  -4.5032  -4.5032  -4.5031  -4.5031
    -4.4516  -4.4494  -4.4457  -4.4449  -4.2884  -4.2867  -4.2760  -4.2760
    -4.2748  -4.2748  -4.2482  -4.2482  -4.2481  -4.2481  -4.2441  -4.2441
    -4.2434  -4.2434  -4.1683  -4.1683  -4.1680  -4.1680  -4.1560  -4.1560
    -4.1531  -4.1531  -3.9746  -3.9746  -3.9741  -3.9741  -3.9178  -3.9178
    -3.9175  -3.9175  -3.9167  -3.9167  -3.9160  -3.9160  -3.9121  -3.9121
    -3.9108  -3.9108  -3.9057  -3.9044  -3.8888  -3.8887  -3.8884  -3.8883
    -3.8136  -3.8136  -3.8132  -3.8132  -3.8132  -3.8132  -3.8128  -3.8128
    -3.7824  -3.7824  -3.7811  -3.7811  -3.7460  -3.7460  -3.7455  -3.7455
    -3.6796  -3.6796  -3.6789  -3.6789  -3.6753  -3.6753  -3.6744  -3.6744
    -3.6540  -3.6540  -3.6321  -3.6321  -3.6288  -3.6288  -3.6214  -3.6213
    -3.6119  -3.6119  -3.5383  -3.5383  -3.5361  -3.5361  -3.3611  -3.3611
    -3.3586  -3.3586  -3.3514  -3.3514  -3.3513  -3.3513  -3.3508  -3.3508
    -3.3506  -3.3506  -3.3461  -3.3461  -3.3457  -3.3457  -3.3013  -3.3007
    -3.2051  -3.2051  -3.2027  -3.2027  -3.1875  -3.1875  -3.1859  -3.1859
    -3.1583  -3.1583  -3.1578  -3.1578  -3.0945  -3.0945  -3.0931  -3.0931
    -3.0893  -3.0893  -3.0883  -3.0883  -3.0599  -3.0533  -2.9325  -2.9325
    -2.9319  -2.9319  -2.9319  -2.9319  -2.9312  -2.9312  -2.7131  -2.7131
    -2.7076  -2.7076  -2.6703  -2.6703  -2.6700  -2.6700  -2.6685  -2.6685
    -2.6672  -2.6672  -2.5391  -2.5391  -2.5382  -2.5382  -2.5112  -2.5112
    -2.5086  -2.5086  -2.5083  -2.5083  -2.5060  -2.5060  -2.5060  -2.5060
    -2.5050  -2.5050  -2.4744  -2.4744  -2.4733  -2.4731  -2.4731  -2.4731
    -2.4352  -2.4304  -2.3895  -2.3895  -2.3895  -2.3895  -2.3890  -2.3889
    -2.3882  -2.3881  -2.3683  -2.3678  -2.3286  -2.3286  -2.3273  -2.3273
    -2.2044  -2.2044  -2.2042  -2.2042  -2.2035  -2.2035  -2.2030  -2.2030
    -2.1792  -2.1784  -2.1661  -2.1661  -2.1660  -2.1660  -2.1349  -2.1349
    -2.1347  -2.1347  -2.1090  -2.1090  -2.0831  -2.0831  -2.0819  -2.0819
    -2.0802  -2.0802  -2.0742  -2.0742  -2.0741  -2.0741  -2.0214  -2.0180
    -1.9522  -1.9522  -1.9503  -1.9503  -1.9363  -1.9363  -1.9102  -1.9102
    -1.7408  -1.7399  -1.7139  -1.7130  -1.7121  -1.7121  -1.7110  -1.7110
    -1.7107  -1.7107  -1.7101  -1.7101  -1.7017  -1.7017  -1.7005  -1.7005
    -1.6963  -1.6963  -1.6956  -1.6956  -1.6954  -1.6954  -1.6943  -1.6943
    -1.6880  -1.6880  -1.6869  -1.6869  -1.6636  -1.6636  -1.6603  -1.6603
    -1.6506  -1.6506  -1.6483  -1.6483  -1.5762  -1.5762  -1.5723  -1.5723
    -1.5565  -1.5557  -1.4881  -1.4881  -1.4862  -1.4862  -1.4720  -1.4720
    -1.4703  -1.4703  -1.4516  -1.4516  -1.4507  -1.4507  -1.4455  -1.4455
    -1.4449  -1.4449  -1.3860  -1.3860  -1.3837  -1.3837  -1.3836  -1.3836
    -1.3833  -1.3833  -1.3782  -1.3749  -1.3749  -1.3742  -1.3742  -1.3727
    -1.3430  -1.3393  -1.3277  -1.3277  -1.3273  -1.3273  -1.3235  -1.3235
    -1.3226  -1.3226  -1.2743  -1.2743  -1.2682  -1.2682  -1.0908  -1.0907
    -1.0903  -1.0867  -1.0859  -1.0859  -1.0540  -1.0540  -1.0538  -1.0538
    -1.0505  -1.0504  -1.0496  -1.0496  -0.9204  -0.9204  -0.9199  -0.9199
    -0.8678  -0.8678  -0.8674  -0.8674   0.2816   0.2816   0.2839   0.2839
     0.3298   0.3320   0.3572   0.3572   0.3602   0.3603   0.4008   0.4008
     0.4034   0.4034   0.4099   0.4099   0.4116   0.4116   0.4163   0.4163
     0.4177   0.4177   0.4863   0.4863   0.4880   0.4880   0.4978   0.4978
     0.4995   0.4995   0.5089   0.5089   0.5111   0.5111   0.5183   0.5183
     0.5241   0.5241   0.5495   0.5587   0.5645   0.5715   0.6815   0.6815
     0.6827   0.6827   0.6837   0.6837   0.6851   0.6851   0.6875   0.6875
     0.6899   0.6899   0.7116   0.7134   0.7145   0.7145   0.7146   0.7146
     0.7169   0.7169   0.7171   0.7171   0.8320   0.8320   0.8332   0.8332
     0.8725   0.8725   0.8736   0.8736

          k =-0.5000-0.8661 0.0000 (****** PWs)   bands (ev):

   -73.5262 -73.5262 -73.5262 -73.5262 -73.5262 -73.5262 -73.5262 -73.5261
   -73.5261 -73.5261 -73.5261 -73.5261 -73.5261 -73.5261 -73.5261 -73.5261
   -73.5261 -73.5261 -73.5258 -73.5258 -73.5258 -73.5258 -73.5258 -73.5258
   -73.5258 -73.5258 -73.5258 -73.5258 -73.5257 -73.5257 -73.5257 -73.5257
   -73.5257 -73.5257 -73.5257 -73.5257 -44.9453 -44.9453 -44.9452 -44.9452
   -44.9451 -44.9451 -44.9451 -44.9451 -44.9448 -44.9448 -44.9448 -44.9448
   -44.9448 -44.9448 -44.9448 -44.9448 -44.9447 -44.9447 -44.9441 -44.9441
   -44.9441 -44.9441 -44.9441 -44.9441 -44.9441 -44.9441 -44.9441 -44.9441
   -44.9438 -44.9438 -44.9438 -44.9438 -44.9436 -44.9436 -44.9436 -44.9436
   -44.9388 -44.9388 -44.9388 -44.9388 -44.9388 -44.9388 -44.9388 -44.9388
   -44.9388 -44.9388 -44.9386 -44.9386 -44.9386 -44.9386 -44.9385 -44.9385
   -44.9385 -44.9385 -44.9380 -44.9380 -44.9380 -44.9380 -44.9376 -44.9376
   -44.9376 -44.9376 -44.9369 -44.9369 -44.9367 -44.9367 -44.9367 -44.9367
   -44.9367 -44.9367 -44.9367 -44.9367 -44.9346 -44.9346 -44.9346 -44.9346
   -44.9346 -44.9346 -44.9346 -44.9346 -44.9343 -44.9343 -44.9338 -44.9338
   -44.9338 -44.9338 -44.9332 -44.9332 -44.9332 -44.9332 -44.9329 -44.9329
   -44.9329 -44.9329 -44.9326 -44.9326 -44.9326 -44.9326 -44.9326 -44.9326
   -44.9325 -44.9325 -44.9325 -44.9325 -44.9325 -44.9325 -44.9325 -44.9325
   -14.2777 -14.2777 -14.2774 -14.2774 -14.1286 -14.1286 -14.1284 -14.1284
   -13.8690 -13.8690 -13.8690 -13.8690 -13.8688 -13.8688 -13.8688 -13.8688
   -13.8243 -13.8242 -13.5942 -13.5940 -13.4783 -13.4783 -13.4783 -13.4783
   -13.4782 -13.4782 -13.4781 -13.4781 -13.4216 -13.4216 -13.4212 -13.4212
   -13.3320 -13.3320 -13.3316 -13.3316 -13.2003 -13.2003 -13.2002 -13.2002
   -13.1980 -13.1980 -13.1979 -13.1979 -13.1978 -13.1978 -13.1977 -13.1977
   -13.1818 -13.1818 -13.1817 -13.1817 -13.1814 -13.1814 -13.1814 -13.1814
   -13.1353 -13.1351 -13.1079 -13.1079 -13.1078 -13.1078 -13.0963 -13.0962
   -13.0917 -13.0916 -13.0485 -13.0485 -13.0483 -13.0483 -13.0209 -13.0209
   -13.0209 -13.0209 -13.0207 -13.0207 -13.0206 -13.0206 -12.9868 -12.9868
   -12.9866 -12.9866 -12.9566 -12.9564 -12.9541 -12.9541 -12.9540 -12.9540
   -12.9538 -12.9538 -12.9538 -12.9538 -12.9264 -12.9264 -12.9263 -12.9263
   -12.9116 -12.9116 -12.9115 -12.9115 -12.8951 -12.8951 -12.8949 -12.8949
   -12.8844 -12.8844 -12.8842 -12.8842  -6.0109  -6.0105  -5.8559  -5.8559
    -5.8556  -5.8556  -5.8353  -5.8353  -5.8351  -5.8351  -5.8129  -5.8129
    -5.8128  -5.8128  -5.8127  -5.8127  -5.8126  -5.8126  -5.4693  -5.4693
    -5.4634  -5.4634  -5.4627  -5.4627  -5.4602  -5.4602  -5.2702  -5.2702
    -5.2699  -5.2699  -5.2685  -5.2685  -5.2681  -5.2681  -5.1392  -5.1388
    -5.1245  -5.1226  -5.0509  -5.0509  -5.0509  -5.0509  -5.0500  -5.0500
    -5.0500  -5.0500  -5.0447  -5.0447  -5.0425  -5.0425  -5.0075  -5.0075
    -5.0054  -5.0054  -5.0038  -5.0038  -5.0035  -5.0035  -4.9916  -4.9916
    -4.9907  -4.9907  -4.9346  -4.9346  -4.9341  -4.9341  -4.9128  -4.9128
    -4.9125  -4.9125  -4.9115  -4.9115  -4.9111  -4.9111  -4.8960  -4.8960
    -4.8937  -4.8937  -4.7866  -4.7854  -4.6204  -4.6204  -4.6203  -4.6203
    -4.6166  -4.6166  -4.6164  -4.6164  -4.5899  -4.5898  -4.5893  -4.5893
    -4.5054  -4.5054  -4.5053  -4.5053  -4.5031  -4.5031  -4.5030  -4.5030
    -4.4506  -4.4485  -4.4457  -4.4451  -4.2881  -4.2864  -4.2765  -4.2765
    -4.2753  -4.2753  -4.2485  -4.2485  -4.2481  -4.2481  -4.2441  -4.2441
    -4.2437  -4.2437  -4.1680  -4.1680  -4.1677  -4.1677  -4.1558  -4.1558
    -4.1529  -4.1529  -3.9753  -3.9753  -3.9748  -3.9748  -3.9176  -3.9176
    -3.9174  -3.9174  -3.9163  -3.9163  -3.9161  -3.9161  -3.9129  -3.9129
    -3.9116  -3.9116  -3.9064  -3.9052  -3.8882  -3.8881  -3.8878  -3.8877
    -3.8134  -3.8134  -3.8134  -3.8134  -3.8130  -3.8130  -3.8130  -3.8130
    -3.7826  -3.7826  -3.7813  -3.7813  -3.7465  -3.7465  -3.7460  -3.7460
    -3.6797  -3.6797  -3.6789  -3.6789  -3.6753  -3.6753  -3.6746  -3.6746
    -3.6523  -3.6523  -3.6318  -3.6318  -3.6285  -3.6285  -3.6217  -3.6216
    -3.6121  -3.6121  -3.5386  -3.5386  -3.5363  -3.5363  -3.3606  -3.3606
    -3.3581  -3.3581  -3.3513  -3.3513  -3.3513  -3.3513  -3.3512  -3.3512
    -3.3511  -3.3511  -3.3449  -3.3449  -3.3445  -3.3445  -3.3008  -3.3001
    -3.2061  -3.2061  -3.2036  -3.2036  -3.1877  -3.1877  -3.1861  -3.1861
    -3.1580  -3.1580  -3.1575  -3.1575  -3.0941  -3.0941  -3.0939  -3.0938
    -3.0891  -3.0891  -3.0888  -3.0888  -3.0600  -3.0534  -2.9319  -2.9319
    -2.9318  -2.9318  -2.9312  -2.9312  -2.9311  -2.9311  -2.7129  -2.7129
    -2.7074  -2.7074  -2.6707  -2.6707  -2.6700  -2.6700  -2.6685  -2.6685
    -2.6676  -2.6676  -2.5392  -2.5392  -2.5383  -2.5383  -2.5117  -2.5117
    -2.5085  -2.5085  -2.5081  -2.5081  -2.5064  -2.5064  -2.5055  -2.5055
    -2.5052  -2.5052  -2.4744  -2.4743  -2.4743  -2.4741  -2.4730  -2.4730
    -2.4358  -2.4310  -2.3894  -2.3894  -2.3890  -2.3890  -2.3885  -2.3885
    -2.3880  -2.3880  -2.3683  -2.3679  -2.3285  -2.3285  -2.3272  -2.3272
    -2.2045  -2.2045  -2.2044  -2.2044  -2.2034  -2.2034  -2.2033  -2.2033
    -2.1794  -2.1787  -2.1656  -2.1656  -2.1655  -2.1655  -2.1352  -2.1352
    -2.1350  -2.1350  -2.1088  -2.1088  -2.0829  -2.0828  -2.0823  -2.0822
    -2.0800  -2.0800  -2.0745  -2.0745  -2.0739  -2.0739  -2.0210  -2.0177
    -1.9523  -1.9523  -1.9504  -1.9504  -1.9365  -1.9365  -1.9105  -1.9105
    -1.7405  -1.7396  -1.7132  -1.7123  -1.7122  -1.7122  -1.7114  -1.7114
    -1.7111  -1.7111  -1.7103  -1.7103  -1.7028  -1.7028  -1.7016  -1.7016
    -1.6957  -1.6957  -1.6955  -1.6955  -1.6946  -1.6946  -1.6944  -1.6944
    -1.6876  -1.6876  -1.6865  -1.6864  -1.6638  -1.6638  -1.6604  -1.6604
    -1.6501  -1.6501  -1.6478  -1.6478  -1.5752  -1.5752  -1.5713  -1.5713
    -1.5555  -1.5548  -1.4877  -1.4877  -1.4857  -1.4857  -1.4725  -1.4725
    -1.4708  -1.4708  -1.4526  -1.4526  -1.4519  -1.4519  -1.4466  -1.4466
    -1.4460  -1.4460  -1.3864  -1.3864  -1.3841  -1.3841  -1.3826  -1.3826
    -1.3824  -1.3824  -1.3790  -1.3736  -1.3736  -1.3736  -1.3736  -1.3735
    -1.3432  -1.3395  -1.3279  -1.3279  -1.3275  -1.3275  -1.3237  -1.3237
    -1.3228  -1.3228  -1.2741  -1.2741  -1.2680  -1.2680  -1.0907  -1.0907
    -1.0902  -1.0866  -1.0859  -1.0859  -1.0538  -1.0538  -1.0536  -1.0536
    -1.0500  -1.0500  -1.0496  -1.0496  -0.9208  -0.9208  -0.9203  -0.9203
    -0.8677  -0.8677  -0.8673  -0.8673   0.2813   0.2813   0.2836   0.2836
     0.3289   0.3310   0.3567   0.3567   0.3596   0.3596   0.4019   0.4019
     0.4045   0.4045   0.4107   0.4107   0.4122   0.4122   0.4169   0.4169
     0.4185   0.4185   0.4863   0.4863   0.4878   0.4878   0.4978   0.4978
     0.4994   0.4994   0.5079   0.5079   0.5104   0.5104   0.5184   0.5184
     0.5242   0.5242   0.5495   0.5587   0.5640   0.5709   0.6815   0.6815
     0.6831   0.6831   0.6840   0.6840   0.6854   0.6855   0.6876   0.6876
     0.6898   0.6898   0.7129   0.7139   0.7139   0.7140   0.7140   0.7147
     0.7163   0.7163   0.7165   0.7165   0.8330   0.8330   0.8342   0.8342
     0.8717   0.8717   0.8727   0.8727

 ------ SPIN DOWN ----------


          k = 0.0000 0.0000 0.0000 (****** PWs)   bands (ev):

   -70.4330 -70.4330 -70.4329 -70.4329 -70.4329 -70.4329 -70.4329 -70.4329
   -70.4329 -70.4329 -70.4329 -70.4329 -70.4329 -70.4329 -70.4328 -70.4327
   -70.4327 -70.4327 -70.4327 -70.4327 -70.4327 -70.4327 -70.4326 -70.4326
   -70.4326 -70.4326 -70.4326 -70.4325 -70.4325 -70.4325 -70.4325 -70.4325
   -70.4325 -70.4325 -70.4324 -70.4324 -41.8517 -41.8517 -41.8512 -41.8512
   -41.8512 -41.8512 -41.8512 -41.8512 -41.8512 -41.8512 -41.8512 -41.8512
   -41.8512 -41.8512 -41.8505 -41.8505 -41.8505 -41.8505 -41.8505 -41.8504
   -41.8504 -41.8504 -41.8497 -41.8497 -41.8497 -41.8497 -41.8497 -41.8497
   -41.8497 -41.8497 -41.8497 -41.8497 -41.8497 -41.8497 -41.8492 -41.8492
   -41.7892 -41.7892 -41.7892 -41.7892 -41.7888 -41.7888 -41.7888 -41.7888
   -41.7888 -41.7888 -41.7888 -41.7888 -41.7888 -41.7888 -41.7888 -41.7888
   -41.7884 -41.7884 -41.7884 -41.7884 -41.7872 -41.7872 -41.7872 -41.7872
   -41.7872 -41.7872 -41.7872 -41.7872 -41.7872 -41.7872 -41.7872 -41.7872
   -41.7850 -41.7850 -41.7850 -41.7850 -41.7850 -41.7850 -41.7850 -41.7850
   -41.7827 -41.7827 -41.7827 -41.7827 -41.7827 -41.7827 -41.7827 -41.7827
   -41.7827 -41.7827 -41.7827 -41.7827 -41.7816 -41.7816 -41.7816 -41.7816
   -41.7812 -41.7812 -41.7812 -41.7812 -41.7811 -41.7811 -41.7811 -41.7811
   -41.7811 -41.7811 -41.7811 -41.7811 -41.7807 -41.7807 -41.7807 -41.7807
   -14.3410 -14.3407 -14.0506 -14.0506 -14.0504 -14.0504 -14.0504 -14.0504
   -14.0503 -14.0503 -14.0502 -14.0502 -14.0502 -14.0502 -13.6339 -13.6339
   -13.6338 -13.6338 -13.6331 -13.6331 -13.6330 -13.6330 -13.5014 -13.5010
   -13.3595 -13.3595 -13.3594 -13.3594 -13.3467 -13.3467 -13.3467 -13.3466
   -13.3465 -13.3465 -13.3465 -13.3465 -13.3465 -13.3464 -13.3463 -13.3463
   -13.3216 -13.3216 -13.3215 -13.3215 -13.3215 -13.3215 -13.3212 -13.3212
   -13.3211 -13.3211 -13.3211 -13.3211 -13.0943 -13.0943 -13.0941 -13.0941
   -13.0933 -13.0933 -13.0931 -13.0931 -13.0930 -13.0930 -13.0930 -13.0930
   -13.0929 -13.0929 -13.0928 -13.0928 -13.0928 -13.0928 -13.0927 -13.0927
   -13.0407 -13.0407 -13.0405 -13.0405 -12.9894 -12.9894 -12.9894 -12.9894
   -12.9893 -12.9893 -12.9892 -12.9892 -12.9891 -12.9891 -12.9891 -12.9891
   -12.9598 -12.9598 -12.9598 -12.9597 -12.9597 -12.9597 -12.9596 -12.9596
   -12.9595 -12.9595 -12.9595 -12.9595 -12.9542 -12.9541 -12.9540 -12.9539
   -12.9184 -12.9183 -12.9181 -12.9180  -5.7004  -5.7004  -5.7004  -5.7004
    -5.7003  -5.7002  -5.7001  -5.7001  -5.6999  -5.6999  -5.6999  -5.6998
    -5.5010  -5.5010  -5.2323  -5.2221  -5.1572  -5.1572  -5.1569  -5.1569
    -5.1564  -5.1564  -5.1558  -5.1558  -5.0474  -5.0474  -5.0470  -5.0470
    -5.0467  -5.0467  -5.0430  -5.0430  -5.0423  -5.0423  -5.0420  -5.0420
    -5.0071  -5.0071  -5.0067  -5.0066  -5.0066  -5.0066  -5.0065  -5.0065
    -5.0062  -5.0062  -5.0062  -5.0062  -4.7792  -4.7792  -4.7772  -4.7772
    -4.7117  -4.7117  -4.7115  -4.7115  -4.7113  -4.7113  -4.7101  -4.7096
    -4.7095  -4.7095  -4.7094  -4.7094  -4.7093  -4.7093  -4.7078  -4.7074
    -4.6576  -4.6576  -4.6573  -4.6573  -4.6564  -4.6564  -4.6560  -4.6560
    -4.6197  -4.6197  -4.6175  -4.6174  -4.5364  -4.5364  -4.5362  -4.5362
    -4.5358  -4.5358  -4.5313  -4.5312  -4.5311  -4.5311  -4.5309  -4.5309
    -4.2586  -4.2586  -4.2024  -4.2024  -4.2016  -4.2016  -4.0563  -4.0550
    -3.9414  -3.9414  -3.9409  -3.9409  -3.9408  -3.9408  -3.9373  -3.9373
    -3.9372  -3.9372  -3.9369  -3.9369  -3.9214  -3.9214  -3.9199  -3.9199
    -3.9155  -3.9155  -3.9138  -3.9138  -3.8005  -3.8005  -3.8002  -3.8002
    -3.8000  -3.8000  -3.7962  -3.7962  -3.7960  -3.7960  -3.7956  -3.7956
    -3.5761  -3.5761  -3.5698  -3.5698  -3.4415  -3.4415  -3.4411  -3.4411
    -3.4402  -3.4402  -3.4377  -3.4377  -3.4372  -3.4372  -3.4368  -3.4368
    -3.3519  -3.3519  -3.3518  -3.3518  -3.3516  -3.3516  -3.3516  -3.3516
    -3.3514  -3.3513  -3.3512  -3.3512  -3.2886  -3.2859  -3.1916  -3.1910
    -3.1883  -3.1877  -3.1583  -3.1583  -3.1578  -3.1578  -3.1574  -3.1574
    -3.1538  -3.1538  -3.1535  -3.1535  -3.1532  -3.1532  -3.1501  -3.1501
    -3.1500  -3.1500  -3.0667  -3.0663  -3.0599  -3.0595  -3.0247  -3.0247
    -3.0230  -3.0230  -3.0223  -3.0223  -3.0183  -3.0183  -3.0176  -3.0176
    -3.0168  -3.0167  -2.7925  -2.7925  -2.7922  -2.7922  -2.7917  -2.7917
    -2.7915  -2.7915  -2.7912  -2.7912  -2.7911  -2.7911  -2.6725  -2.6725
    -2.6711  -2.6711  -2.6662  -2.6662  -2.6631  -2.6631  -2.6351  -2.6351
    -2.6350  -2.6350  -2.6349  -2.6349  -2.6333  -2.6333  -2.6331  -2.6331
    -2.6330  -2.6330  -2.6320  -2.6319  -2.6314  -2.6314  -2.6305  -2.6305
    -2.6287  -2.6287  -2.6276  -2.6276  -2.6262  -2.6262  -2.4894  -2.4894
    -2.4893  -2.4893  -2.3446  -2.3056  -2.2341  -2.2341  -2.2328  -2.2328
    -2.2324  -2.2324  -2.2293  -2.2293  -2.2289  -2.2289  -2.2269  -2.2269
    -2.1664  -2.1664  -2.1611  -2.1611  -2.0572  -2.0572  -2.0568  -2.0568
    -2.0561  -2.0561  -2.0554  -2.0554  -1.8878  -1.8878  -1.8869  -1.8869
    -1.8865  -1.8865  -1.8849  -1.8849  -1.8845  -1.8845  -1.8841  -1.8841
    -1.8591  -1.8591  -1.8588  -1.8588  -1.8584  -1.8584  -1.8390  -1.8390
    -1.8389  -1.8389  -1.8386  -1.8386  -1.7080  -1.7077  -1.7039  -1.7035
    -1.6465  -1.6465  -1.6449  -1.6449  -1.6416  -1.6416  -1.6402  -1.6402
    -1.3743  -1.3743  -1.3742  -1.3741  -1.3741  -1.3741  -1.3731  -1.3731
    -1.3731  -1.3730  -1.3728  -1.3728  -0.9141  -0.9139  -0.9137  -0.9134
     0.7996   0.7996   0.8008   0.8008   0.8057   0.8057   0.8085   0.8085
     0.8446   0.8446   0.8455   0.8455   0.8458   0.8458   0.8462   0.8462
     0.8465   0.8466   0.8470   0.8470   0.8663   0.8663   0.8699   0.8699
     0.9262   0.9262   0.9267   0.9267   0.9269   0.9269   0.9357   0.9357
     0.9358   0.9358   0.9366   0.9366   0.9712   0.9713   0.9714   0.9714
     1.0628   1.0883   1.1252   1.1252   1.2381   1.2382   1.2387   1.2387
     1.2387   1.2387   1.2436   1.2436   1.2436   1.2436   1.2441   1.2441
     1.3242   1.3242   1.3242   1.3242   1.3270   1.3270   1.3280   1.3280
     1.3283   1.3283   1.3352   1.3352   1.3355   1.3355   1.3362   1.3362
     1.3799   1.3799   1.3814   1.3814   1.3816   1.3816   1.3827   1.3827
     1.3828   1.3828   1.3841   1.3841   1.4858   1.4861   1.4888   1.4891
     1.5251   1.5251   1.5268   1.5268   1.5322   1.5322   1.5344   1.5344
     1.5380   1.5380   1.5381   1.5381   1.5385   1.5385   1.5421   1.5421
     1.5426   1.5426   1.5430   1.5430   1.6651   1.6652   1.6669   1.6669
     1.6677   1.6677   1.6758   1.6758   1.6765   1.6765   1.6802   1.6803
     1.7666   1.7669   1.7701   1.7704   1.7755   1.7755   1.7789   1.7789
     1.7796   1.7796   1.7905   1.7905   1.7913   1.7913   1.7927   1.7927
     1.8834   1.8834   1.9042   1.9042   1.9900   1.9900   1.9945   1.9945
     1.9977   1.9977   2.0008   2.0008   2.0009   2.0009   2.0041   2.0041
     2.0053   2.0053   2.0054   2.0054   2.0066   2.0066   2.0085   2.0085
     2.0547   2.0547   2.0549   2.0549   2.0550   2.0550   2.0601   2.0601
     2.0605   2.0605   2.0606   2.0606   2.1032   2.1032   2.1037   2.1037
     2.1847   2.1854   2.1866   2.1866

          k =-0.0000-0.5774 0.0000 (****** PWs)   bands (ev):

[...]
   -12.9132 -12.9132 -12.9130 -12.9130  -5.7620  -5.7614  -5.5839  -5.5839
    -5.5835  -5.5835  -5.5785  -5.5785  -5.5784  -5.5784  -5.5625  -5.5625
    -5.5624  -5.5624  -5.5622  -5.5622  -5.5621  -5.5621  -5.2114  -5.2114
    -5.2075  -5.2075  -5.2038  -5.2038  -5.2038  -5.2038  -5.0789  -5.0785
    -5.0086  -5.0086  -5.0083  -5.0083  -5.0066  -5.0066  -5.0063  -5.0063
    -4.9448  -4.9448  -4.9447  -4.9447  -4.9441  -4.9441  -4.9440  -4.9440
    -4.8788  -4.8788  -4.8784  -4.8784  -4.8561  -4.8559  -4.8559  -4.8550
    -4.8550  -4.8539  -4.8180  -4.8180  -4.8175  -4.8175  -4.7846  -4.7846
    -4.7833  -4.7833  -4.7228  -4.7228  -4.7198  -4.7197  -4.6805  -4.6805
    -4.6802  -4.6802  -4.6786  -4.6786  -4.6782  -4.6782  -4.6559  -4.6559
    -4.6505  -4.6505  -4.4184  -4.4168  -4.3834  -4.3834  -4.3828  -4.3828
    -4.3686  -4.3686  -4.3683  -4.3683  -4.3632  -4.3632  -4.3629  -4.3629
    -4.2495  -4.2460  -4.2337  -4.2325  -4.2047  -4.2047  -4.2046  -4.2046
    -4.2016  -4.2016  -4.2016  -4.2016  -3.9817  -3.9817  -3.9802  -3.9802
    -3.8850  -3.8850  -3.8845  -3.8845  -3.8724  -3.8724  -3.8719  -3.8719
    -3.8658  -3.8658  -3.8652  -3.8652  -3.8351  -3.8322  -3.6954  -3.6954
    -3.6908  -3.6908  -3.5992  -3.5992  -3.5985  -3.5985  -3.4904  -3.4904
    -3.4904  -3.4904  -3.4870  -3.4870  -3.4868  -3.4868  -3.4811  -3.4802
    -3.4742  -3.4742  -3.4738  -3.4738  -3.4063  -3.4063  -3.4062  -3.4062
    -3.4023  -3.4023  -3.4022  -3.4022  -3.3759  -3.3759  -3.3731  -3.3731
    -3.3148  -3.3148  -3.3133  -3.3133  -3.2987  -3.2987  -3.2955  -3.2955
    -3.2860  -3.2860  -3.2812  -3.2812  -3.2782  -3.2744  -3.2357  -3.2357
    -3.2357  -3.2356  -3.2349  -3.2349  -3.2349  -3.2349  -3.1986  -3.1985
    -3.0912  -3.0912  -3.0891  -3.0891  -3.0859  -3.0859  -3.0824  -3.0823
    -3.0356  -3.0298  -3.0246  -3.0246  -3.0242  -3.0242  -3.0139  -3.0139
    -2.9798  -2.9798  -2.9768  -2.9767  -2.8889  -2.8889  -2.8886  -2.8886
    -2.8880  -2.8880  -2.8877  -2.8877  -2.8792  -2.8792  -2.8758  -2.8758
    -2.8558  -2.8558  -2.8556  -2.8556  -2.8509  -2.8509  -2.8507  -2.8507
    -2.8014  -2.8014  -2.7977  -2.7977  -2.5347  -2.5347  -2.5329  -2.5329
    -2.5290  -2.5290  -2.5271  -2.5271  -2.5247  -2.5246  -2.4943  -2.4943
    -2.4914  -2.4914  -2.3421  -2.3421  -2.3416  -2.3416  -2.3407  -2.3407
    -2.3403  -2.3403  -2.3219  -2.3151  -2.2969  -2.2969  -2.2713  -2.2713
    -2.2479  -2.2479  -2.1606  -2.1606  -2.1604  -2.1604  -2.1567  -2.1567
    -2.1564  -2.1564  -2.0083  -2.0083  -2.0073  -2.0073  -2.0034  -2.0034
    -2.0025  -2.0022  -2.0022  -2.0002  -1.9753  -1.9753  -1.9649  -1.9649
    -1.8694  -1.8641  -1.8610  -1.8610  -1.8499  -1.8499  -1.8477  -1.8477
    -1.8455  -1.8455  -1.7907  -1.7907  -1.7887  -1.7887  -1.7800  -1.7800
    -1.7731  -1.7731  -1.7520  -1.7520  -1.7510  -1.7510  -1.7459  -1.7459
    -1.7448  -1.7448  -1.5122  -1.5122  -1.5113  -1.5113  -1.5089  -1.5089
    -1.5080  -1.5080  -1.5006  -1.5006  -1.4998  -1.4998  -1.4096  -1.4069
    -1.3556  -1.3556  -1.3552  -1.3552  -1.0941  -1.0941  -1.0937  -1.0937
     0.6757   0.6767   0.7727   0.7727   0.7741   0.7741   0.7776   0.7776
     0.7792   0.7792   0.8369   0.8369   0.8381   0.8381   0.8422   0.8422
     0.8434   0.8434   0.8601   0.8631   0.9380   0.9380   0.9391   0.9391
     0.9420   0.9420   0.9525   0.9525   0.9697   0.9697   0.9705   0.9705
     1.0781   1.0781   1.0820   1.0820   1.0838   1.0839   1.0856   1.0856
     1.0858   1.0858   1.0873   1.0873   1.0890   1.0890   1.0989   1.0989
     1.1076   1.1076   1.1101   1.1101   1.2497   1.2530   1.2652   1.2706
     1.2949   1.2949   1.2964   1.2964   1.3016   1.3016   1.3022   1.3022
     1.3066   1.3066   1.3071   1.3071   1.3835   1.3835   1.3864   1.3864
     1.4188   1.4206   1.4253   1.4253   1.4348   1.4348   1.4445   1.4445
     1.4461   1.4461   1.4479   1.4479   1.4503   1.4503   1.4642   1.4642
     1.4644   1.4644   1.4675   1.4675   1.4683   1.4683   1.4710   1.4710
     1.4714   1.4714   1.5147   1.5148   1.5464   1.5464   1.5465   1.5465
     1.5497   1.5497   1.5497   1.5497   1.6513   1.6513   1.6644   1.6644
     1.6756   1.6855   1.7415   1.7415   1.7452   1.7452   1.7540   1.7540
     1.7548   1.7548   1.7698   1.7698   1.7714   1.7714   1.7720   1.7720
     1.7721   1.7721   1.8513   1.8513   1.8525   1.8525   1.8834   1.8834
     1.8838   1.8838   1.8945   1.9050   1.9050   1.9051   1.9052   1.9081
     1.9393   1.9393   1.9444   1.9444   2.0044   2.0044   2.0047   2.0047
     2.0109   2.0109   2.0114   2.0114   2.0115   2.0115   2.0171   2.0171
     2.0399   2.0469   2.0735   2.0743   2.0911   2.0911   2.0939   2.0939
     2.0958   2.0958   2.0983   2.0984   2.1052   2.1052   2.1079   2.1079
     2.1315   2.1315   2.1339   2.1339

     the Fermi energy is    -0.2898 ev

!    total energy              =   -9215.83881553 Ry
     estimated scf accuracy    <       0.00000006 Ry
     smearing contrib. (-TS)   =      -0.00000088 Ry
     internal energy E=F+TS    =   -9215.83881464 Ry

     The total energy is F=E-TS. E is the sum of the following terms:
     one-electron contribution =  -54166.88598230 Ry
     hartree contribution      =   27187.23052106 Ry
     xc contribution           =   -1818.11846149 Ry
     ewald contribution        =   19590.61234048 Ry
     DFT-D3 Dispersion         =      -8.67723240 Ry

     total magnetization       =   108.00 Bohr mag/cell
     absolute magnetization    =   126.48 Bohr mag/cell

     convergence has been achieved in  18 iterations

     Forces acting on atoms (cartesian axes, Ry/au):

     atom    1 type  2   force =     0.00022233    0.00016178    0.00044542
     atom    2 type  2   force =     0.00005567    0.00006453    0.00027689
     atom    3 type  2   force =    -0.00025156   -0.00007581    0.00035820
     atom    4 type  1   force =    -0.00005308    0.00003499    0.00029296
     atom    5 type  1   force =     0.00014277   -0.00008176    0.00029323
     atom    6 type  2   force =    -0.00006059    0.00025762    0.00017524
     atom    7 type  2   force =    -0.00003408   -0.00008175    0.00025858
     atom    8 type  2   force =    -0.00003016   -0.00027624    0.00008646
     atom    9 type  4   force =     0.00022762    0.00016171   -0.00008764
     atom   10 type  4   force =     0.00005644    0.00006621   -0.00025617
     atom   11 type  4   force =    -0.00024983   -0.00007742   -0.00017632
     atom   12 type  3   force =    -0.00007013    0.00003343   -0.00029287
     atom   13 type  3   force =     0.00016213   -0.00007553   -0.00029345
     atom   14 type  4   force =    -0.00005955    0.00025450   -0.00035822
     atom   15 type  4   force =    -0.00002867   -0.00008111   -0.00027573
     atom   16 type  4   force =    -0.00003040   -0.00027216   -0.00044664
     atom   17 type  2   force =     0.00022221    0.00016274    0.00044532
     atom   18 type  2   force =     0.00005494    0.00006387    0.00027693
     atom   19 type  2   force =    -0.00025026   -0.00007617    0.00035786
     atom   20 type  1   force =    -0.00004577    0.00002216    0.00029287
     atom   21 type  1   force =     0.00014384   -0.00008917    0.00029324
     atom   22 type  2   force =    -0.00005992    0.00025624    0.00017636
     atom   23 type  2   force =    -0.00003435   -0.00008017    0.00025799
     atom   24 type  2   force =    -0.00003049   -0.00027638    0.00008626
     atom   25 type  4   force =     0.00022748    0.00016329   -0.00008832
     atom   26 type  4   force =     0.00005627    0.00006601   -0.00025741
     atom   27 type  4   force =    -0.00025056   -0.00007827   -0.00017563
     atom   28 type  3   force =    -0.00007641    0.00002892   -0.00029286
     atom   29 type  3   force =     0.00016798   -0.00008540   -0.00029325
     atom   30 type  4   force =    -0.00005872    0.00025377   -0.00035774
     atom   31 type  4   force =    -0.00002902   -0.00008028   -0.00027535
     atom   32 type  4   force =    -0.00003000   -0.00027285   -0.00044711
     atom   33 type  2   force =     0.00022290    0.00016167    0.00044604
     atom   34 type  2   force =     0.00005525    0.00006410    0.00027675
     atom   35 type  2   force =    -0.00025147   -0.00007507    0.00035712
     atom   36 type  1   force =    -0.00004858    0.00002882    0.00029283
     atom   37 type  1   force =     0.00013727   -0.00007795    0.00029315
     atom   38 type  2   force =    -0.00006091    0.00025685    0.00017651
     atom   39 type  2   force =    -0.00003454   -0.00008131    0.00025791
     atom   40 type  2   force =    -0.00002980   -0.00027600    0.00008638
     atom   41 type  4   force =     0.00022796    0.00016207   -0.00008724
     atom   42 type  4   force =     0.00005569    0.00006644   -0.00025677
     atom   43 type  4   force =    -0.00025014   -0.00007836   -0.00017619
     atom   44 type  3   force =    -0.00007154    0.00003100   -0.00029284
     atom   45 type  3   force =     0.00016117   -0.00007423   -0.00029329
     atom   46 type  4   force =    -0.00005950    0.00025368   -0.00035745
     atom   47 type  4   force =    -0.00002994   -0.00008080   -0.00027626
     atom   48 type  4   force =    -0.00003028   -0.00027248   -0.00044571
     atom   49 type  2   force =     0.00022217    0.00016160    0.00044639
     atom   50 type  2   force =     0.00005506    0.00006331    0.00027738
     atom   51 type  2   force =    -0.00025068   -0.00007481    0.00035741
     atom   52 type  1   force =    -0.00004497    0.00003451    0.00029303
     atom   53 type  1   force =     0.00014369   -0.00007483    0.00029331
     atom   54 type  2   force =    -0.00006106    0.00025688    0.00017521
     atom   55 type  2   force =    -0.00003339   -0.00008106    0.00025830
     atom   56 type  2   force =    -0.00003096   -0.00027592    0.00008607
     atom   57 type  4   force =     0.00022700    0.00016219   -0.00008722
     atom   58 type  4   force =     0.00005648    0.00006720   -0.00025603
     atom   59 type  4   force =    -0.00025033   -0.00007837   -0.00017552
     atom   60 type  3   force =    -0.00007698    0.00003118   -0.00029286
     atom   61 type  3   force =     0.00016420   -0.00007316   -0.00029342
     atom   62 type  4   force =    -0.00005958    0.00025351   -0.00035858
     atom   63 type  4   force =    -0.00002950   -0.00008115   -0.00027631
     atom   64 type  4   force =    -0.00002955   -0.00027215   -0.00044634
     atom   65 type  2   force =     0.00022277    0.00016296    0.00044648
     atom   66 type  2   force =     0.00005488    0.00006336    0.00027669
     atom   67 type  2   force =    -0.00025103   -0.00007606    0.00035850
     atom   68 type  1   force =    -0.00004898    0.00002889    0.00029301
     atom   69 type  1   force =     0.00014912   -0.00008475    0.00029327
     atom   70 type  2   force =    -0.00006014    0.00025721    0.00017490
     atom   71 type  2   force =    -0.00003400   -0.00008033    0.00025836
     atom   72 type  2   force =    -0.00003105   -0.00027668    0.00008580
     atom   73 type  4   force =     0.00022778    0.00016295   -0.00008677
     atom   74 type  4   force =     0.00005664    0.00006655   -0.00025637
     atom   75 type  4   force =    -0.00025036   -0.00007795   -0.00017527
     atom   76 type  3   force =    -0.00007529    0.00002222   -0.00029280
     atom   77 type  3   force =     0.00016536   -0.00008059   -0.00029354
     atom   78 type  4   force =    -0.00005932    0.00025398   -0.00035839
     atom   79 type  4   force =    -0.00002937   -0.00008042   -0.00027671
     atom   80 type  4   force =    -0.00002944   -0.00027247   -0.00044731
     atom   81 type  2   force =     0.00022288    0.00016228    0.00044654
     atom   82 type  2   force =     0.00005450    0.00006350    0.00027697
     atom   83 type  2   force =    -0.00025020   -0.00007580    0.00035746
     atom   84 type  1   force =    -0.00004214    0.00002932    0.00029299
     atom   85 type  1   force =     0.00015029   -0.00007805    0.00029320
     atom   86 type  2   force =    -0.00005967    0.00025663    0.00017534
     atom   87 type  2   force =    -0.00003451   -0.00008074    0.00025767
     atom   88 type  2   force =    -0.00003118   -0.00027618    0.00008663
     atom   89 type  4   force =     0.00022792    0.00016253   -0.00008736
     atom   90 type  4   force =     0.00005699    0.00006717   -0.00025692
     atom   91 type  4   force =    -0.00025123   -0.00007818   -0.00017552
     atom   92 type  3   force =    -0.00008213    0.00003035   -0.00029271
     atom   93 type  3   force =     0.00017081   -0.00007628   -0.00029345
     atom   94 type  4   force =    -0.00005851    0.00025389   -0.00035834
     atom   95 type  4   force =    -0.00002987   -0.00008157   -0.00027613
     atom   96 type  4   force =    -0.00002875   -0.00027248   -0.00044697
     atom   97 type  2   force =     0.00022160    0.00016174    0.00044534
     atom   98 type  2   force =     0.00005546    0.00006358    0.00027713
     atom   99 type  2   force =    -0.00025061   -0.00007553    0.00035833
     atom  100 type  1   force =    -0.00004871    0.00002897    0.00029305
     atom  101 type  1   force =     0.00014455   -0.00008199    0.00029330
     atom  102 type  2   force =    -0.00006030    0.00025631    0.00017580
     atom  103 type  2   force =    -0.00003403   -0.00008147    0.00025732
     atom  104 type  2   force =    -0.00003074   -0.00027525    0.00008669
     atom  105 type  4   force =     0.00022689    0.00016186   -0.00008824
     atom  106 type  4   force =     0.00005596    0.00006694   -0.00025649
     atom  107 type  4   force =    -0.00025091   -0.00007799   -0.00017609
     atom  108 type  3   force =    -0.00007544    0.00003800   -0.00029285
     atom  109 type  3   force =     0.00016375   -0.00008127   -0.00029347
     atom  110 type  4   force =    -0.00005938    0.00025394   -0.00035833
     atom  111 type  4   force =    -0.00002906   -0.00008140   -0.00027531
     atom  112 type  4   force =    -0.00002952   -0.00027312   -0.00044699
     atom  113 type  2   force =     0.00022201    0.00016252    0.00044583
     atom  114 type  2   force =     0.00005576    0.00006313    0.00027643
     atom  115 type  2   force =    -0.00025126   -0.00007523    0.00035860
     atom  116 type  1   force =    -0.00005212    0.00002249    0.00029293
     atom  117 type  1   force =     0.00013796   -0.00008498    0.00029329
     atom  118 type  2   force =    -0.00006132    0.00025631    0.00017639
     atom  119 type  2   force =    -0.00003396   -0.00008074    0.00025738
     atom  120 type  2   force =    -0.00003057   -0.00027574    0.00008611
     atom  121 type  4   force =     0.00022710    0.00016263   -0.00008751
     atom  122 type  4   force =     0.00005540    0.00006678   -0.00025649
     atom  123 type  4   force =    -0.00024990   -0.00007901   -0.00017573
     atom  124 type  3   force =    -0.00007092    0.00002680   -0.00029280
     atom  125 type  3   force =     0.00015695   -0.00008395   -0.00029336
     atom  126 type  4   force =    -0.00005989    0.00025323   -0.00035751
     atom  127 type  4   force =    -0.00002972   -0.00007994   -0.00027577
     atom  128 type  4   force =    -0.00003037   -0.00027357   -0.00044670
     atom  129 type  2   force =     0.00022281    0.00016171    0.00044596
     atom  130 type  2   force =     0.00005560    0.00006384    0.00027647
     atom  131 type  2   force =    -0.00025184   -0.00007587    0.00035872
     atom  132 type  1   force =    -0.00005607    0.00002908    0.00029289
     atom  133 type  1   force =     0.00014332   -0.00008069    0.00029328
     atom  134 type  2   force =    -0.00006066    0.00025736    0.00017557
     atom  135 type  2   force =    -0.00003483   -0.00008169    0.00025721
     atom  136 type  2   force =    -0.00003023   -0.00027581    0.00008680
     atom  137 type  4   force =     0.00022803    0.00016152   -0.00008723
     atom  138 type  4   force =     0.00005570    0.00006688   -0.00025649
     atom  139 type  4   force =    -0.00025030   -0.00007785   -0.00017664
     atom  140 type  3   force =    -0.00006884    0.00003017   -0.00029264
     atom  141 type  3   force =     0.00015819   -0.00007711   -0.00029347
     atom  142 type  4   force =    -0.00005995    0.00025449   -0.00035788
     atom  143 type  4   force =    -0.00002986   -0.00008099   -0.00027615
     atom  144 type  4   force =    -0.00002974   -0.00027300   -0.00044678

     Total force =     0.004287     Total SCF correction =     0.000565
     SCF correction compared to forces is large: reduce conv_thr to get better values


     Computing stress (Cartesian axis) and pressure

          total   stress  (Ry/bohr**3)                   (kbar)     P=       -0.22
   0.00000030  -0.00000011  -0.00000010            0.04       -0.02       -0.01
  -0.00000011   0.00000017  -0.00000017           -0.02        0.02       -0.03
  -0.00000010  -0.00000017  -0.00000503           -0.01       -0.03       -0.74


     Writing all to output data dir ./CrI3-HT-fm.save/ :
     XML data file
     init_run     :     48.06s CPU     91.56s WALL (       1 calls)
     electrons    :   2068.51s CPU   3630.87s WALL (       1 calls)
     forces       :     32.78s CPU     36.32s WALL (       1 calls)
     force_dftd3  :      0.07s CPU      0.07s WALL (       1 calls)
     stress       :     83.91s CPU     90.46s WALL (       1 calls)
     stres_dftd3  :      0.06s CPU      0.07s WALL (       1 calls)

     Called by init_run:
     wfcinit      :     34.57s CPU     70.16s WALL (       1 calls)
     potinit      :      0.58s CPU      0.89s WALL (       1 calls)
     hinit0       :      8.83s CPU      9.06s WALL (       1 calls)

     Called by electrons:
     c_bands      :   1765.73s CPU   3050.78s WALL (      18 calls)
     sum_band     :    283.49s CPU    550.16s WALL (      18 calls)
     v_of_rho     :      6.87s CPU      9.84s WALL (      19 calls)
     mix_rho      :     10.49s CPU     17.75s WALL (      18 calls)
     energy_dftd3 :      0.03s CPU      0.03s WALL (       1 calls)

     Called by c_bands:
     init_us_2    :     21.98s CPU     22.06s WALL (     312 calls)
     cegterg      :   1410.32s CPU   2632.30s WALL (     144 calls)

     Called by *egterg:
     cdiaghg      :     27.66s CPU     28.61s WALL (     485 calls)
                                       28.60s GPU  (     485 calls)
     h_psi        :   1128.40s CPU   2376.25s WALL (     493 calls)
                                     2375.29s GPU  (     493 calls)
     g_psi        :      0.00s CPU      3.60s WALL (     341 calls)
                                        3.59s GPU  (     341 calls)

     Called by h_psi:
     h_psi:calbec :    250.11s CPU    263.06s WALL (     493 calls)
                                      263.05s GPU  (     493 calls)
     vloc_psi     :    658.73s CPU   1893.28s WALL (     493 calls)
                                     1893.30s GPU  (     493 calls)
     add_vuspsi   :      1.63s CPU    216.18s WALL (     493 calls)
                                      216.17s GPU  (     493 calls)

     General routines
     calbec       :    341.94s CPU    358.72s WALL (     629 calls)
     fft          :      6.10s CPU      9.06s WALL (     401 calls)
                                        9.05s GPU  (     401 calls)
     ffts         :      0.53s CPU      0.78s WALL (      36 calls)
                                        0.78s GPU  (      36 calls)
     fftw         :    363.65s CPU   2152.69s WALL (   42784 calls)
                                     2152.19s GPU  (   42784 calls)
 
     Parallel routines
 
     PWSCF        :  37m13.71s CPU      1h 4m WALL

 
   This run was terminated on:   9: 3:35   4Jul2025            

=------------------------------------------------------------------------------=
   JOB DONE.
=------------------------------------------------------------------------------=
