
     Program PWSCF v.6.7MaX starts on 27Aug2021 at 11: 1:38 

     This program is part of the open-source Quantum ESPRESSO suite
     for quantum simulation of materials; please cite
         "P. Giannozzi et al., J. Phys.:Condens. Matter 21 395502 (2009);
         "P. Giannozzi et al., J. Phys.:Condens. Matter 29 465901 (2017);
          URL http://www.quantum-espresso.org", 
     in publications or presentations arising from this work. More details at
     http://www.quantum-espresso.org/quote

     Parallel version (MPI & OpenMP), running on      48 processor cores
     Number of MPI processes:                48
     Threads/MPI process:                     1

     MPI processes distributed on     1 nodes
     R & G space division:  proc/nbgrp/npool/nimage =      48
     Reading input from Al12Mg17_ecut100_k4.scf.in

     Current dimensions of program PWSCF are:
     Max number of different atomic species (ntypx) = 10
     Max number of k-points (npk) =  40000
     Max angular momentum in pseudopotentials (lmaxx) =  3
     Message from routine read_pp_mesh:
     mesh size missing, using the one in header
     Message from routine read_pp_mesh:
     mesh size missing, using the one in header

     Subspace diagonalization in iterative solution of the eigenvalue problem:
     one sub-group per band group will be used
     scalapack distributed-memory algorithm (size of sub-group:  6*  6 procs)

     Found symmetry operation: I + ( -0.5000 -0.5000 -0.5000)
     This is a supercell, fractional translations are disabled
     Message from routine setup:
     using ibrav=0 with symmetry is DISCOURAGED, use correct ibrav instead
 
     Parallelization info
     --------------------
     sticks:   dense  smooth     PW     G-vecs:    dense   smooth      PW
     Min         263     263     68                22186    22186    2946
     Max         265     265     69                22189    22189    2949
     Sum       12629   12629   3297              1064995  1064995  141505
 


     bravais-lattice index     =            0
     lattice parameter (alat)  =      19.9037  a.u.
     unit-cell volume          =    7884.9946 (a.u.)^3
     number of atoms/cell      =           58
     number of atomic types    =            2
     number of electrons       =       412.00
     number of Kohn-Sham states=          247
     kinetic-energy cutoff     =     100.0000  Ry
     charge density cutoff     =     400.0000  Ry
     scf convergence threshold =      1.0E-07
     mixing beta               =       0.7000
     number of iterations used =            8  plain     mixing
     Exchange-correlation= PBE
                           (   1   4   3   4   0   0   0)

     celldm(1)=  19.903699  celldm(2)=   0.000000  celldm(3)=   0.000000
     celldm(4)=   0.000000  celldm(5)=   0.000000  celldm(6)=   0.000000

     crystal axes: (cart. coord. in units of alat)
               a(1) = (   1.000000   0.000000   0.000000 )  
               a(2) = (   0.000000   1.000000   0.000000 )  
               a(3) = (   0.000000   0.000000   1.000000 )  

     reciprocal axes: (cart. coord. in units 2 pi/alat)
               b(1) = (  1.000000  0.000000  0.000000 )  
               b(2) = (  0.000000  1.000000  0.000000 )  
               b(3) = (  0.000000  0.000000  1.000000 )  


     PseudoPot. # 1 for Mg read from file:
     /home/kartickr/QuantumEspresso_runs/pseudo/Mg.upf
     MD5 check sum: 4c04d8c6e0476e83eaecaf72fa8acc4d
     Pseudo is Norm-conserving, Zval = 10.0
     Generated using ONCVPSP code by D. R. Hamann
     Using radial grid of 1510 points,  4 beta functions with: 
                l(1) =   0
                l(2) =   0
                l(3) =   1
                l(4) =   1

     PseudoPot. # 2 for Al read from file:
     /home/kartickr/QuantumEspresso_runs/pseudo/Al.upf
     MD5 check sum: a92309766db89a6b54a5f8790cc4d69e
     Pseudo is Norm-conserving + core correction, Zval =  3.0
     Generated using ONCVPSP code by D. R. Hamann
     Using radial grid of 1876 points,  6 beta functions with: 
                l(1) =   0
                l(2) =   0
                l(3) =   1
                l(4) =   1
                l(5) =   2
                l(6) =   2

     atomic species   valence    mass     pseudopotential
        Mg            10.00    24.30500     Mg( 1.00)
        Al             3.00    26.98150     Al( 1.00)

     24 Sym. Ops. (no inversion) found



   Cartesian axes

     site n.     atom                  positions (alat units)
         1           Mg  tau(   1) = (   0.0000000   0.0000000   0.0000000  )
         2           Mg  tau(   2) = (   0.6720990   0.3279000   0.3279000  )
         3           Mg  tau(   3) = (   0.3279000   0.6720990   0.3279000  )
         4           Mg  tau(   4) = (   0.3279000   0.3279000   0.6720990  )
         5           Mg  tau(   5) = (   0.1720990   0.1720990   0.1720990  )
         6           Mg  tau(   6) = (   0.1433450   0.8566550   0.5403470  )
         7           Mg  tau(   7) = (   0.9596530   0.3566550   0.3566550  )
         8           Mg  tau(   8) = (   0.1433450   0.5403470   0.8566550  )
         9           Mg  tau(   9) = (   0.8566550   0.1433450   0.5403470  )
        10           Mg  tau(  10) = (   0.5403470   0.1433450   0.8566550  )
        11           Mg  tau(  11) = (   0.3566550   0.9596530   0.3566550  )
        12           Mg  tau(  12) = (   0.3566550   0.3566550   0.9596530  )
        13           Mg  tau(  13) = (   0.5403470   0.8566550   0.1433450  )
        14           Mg  tau(  14) = (   0.8566550   0.5403470   0.1433450  )
        15           Mg  tau(  15) = (   0.1433450   0.1433450   0.4596530  )
        16           Mg  tau(  16) = (   0.4596530   0.1433450   0.1433450  )
        17           Mg  tau(  17) = (   0.1433450   0.4596530   0.1433450  )
        18           Mg  tau(  18) = (   0.5000000   0.5000000   0.5000000  )
        19           Mg  tau(  19) = (   0.1720990   0.8279010   0.8279010  )
        20           Mg  tau(  20) = (   0.8279010   0.1720990   0.8279010  )
        21           Mg  tau(  21) = (   0.8279010   0.8279010   0.1720990  )
        22           Mg  tau(  22) = (   0.6720990   0.6720990   0.6720990  )
        23           Mg  tau(  23) = (   0.6433450   0.3566550   0.0403470  )
        24           Mg  tau(  24) = (   0.4596530   0.8566550   0.8566550  )
        25           Mg  tau(  25) = (   0.6433450   0.0403470   0.3566550  )
        26           Mg  tau(  26) = (   0.3566550   0.6433450   0.0403470  )
        27           Mg  tau(  27) = (   0.0403470   0.6433450   0.3566550  )
        28           Mg  tau(  28) = (   0.8566550   0.4596530   0.8566550  )
        29           Mg  tau(  29) = (   0.8566550   0.8566550   0.4596530  )
        30           Mg  tau(  30) = (   0.0403470   0.3566550   0.6433450  )
        31           Mg  tau(  31) = (   0.3566550   0.0403470   0.6433450  )
        32           Mg  tau(  32) = (   0.6433450   0.6433450   0.9596530  )
        33           Mg  tau(  33) = (   0.9596530   0.6433450   0.6433450  )
        34           Mg  tau(  34) = (   0.6433450   0.9596530   0.6433450  )
        35           Al  tau(  35) = (   0.9093690   0.0906315   0.2758130  )
        36           Al  tau(  36) = (   0.7241860   0.0906315   0.0906315  )
        37           Al  tau(  37) = (   0.9093690   0.2758130   0.0906315  )
        38           Al  tau(  38) = (   0.0906315   0.9093690   0.2758130  )
        39           Al  tau(  39) = (   0.2758130   0.9093690   0.0906315  )
        40           Al  tau(  40) = (   0.0906315   0.7241860   0.0906315  )
        41           Al  tau(  41) = (   0.0906315   0.0906315   0.7241860  )
        42           Al  tau(  42) = (   0.2758130   0.0906315   0.9093690  )
        43           Al  tau(  43) = (   0.0906315   0.2758130   0.9093690  )
        44           Al  tau(  44) = (   0.4093690   0.4093690   0.2241870  )
        45           Al  tau(  45) = (   0.2241870   0.4093690   0.4093690  )
        46           Al  tau(  46) = (   0.4093690   0.2241870   0.4093690  )
        47           Al  tau(  47) = (   0.4093690   0.5906310   0.7758140  )
        48           Al  tau(  48) = (   0.2241870   0.5906310   0.5906310  )
        49           Al  tau(  49) = (   0.4093690   0.7758140   0.5906310  )
        50           Al  tau(  50) = (   0.5906310   0.4093690   0.7758140  )
        51           Al  tau(  51) = (   0.7758140   0.4093690   0.5906310  )
        52           Al  tau(  52) = (   0.5906310   0.2241870   0.5906310  )
        53           Al  tau(  53) = (   0.5906310   0.5906310   0.2241870  )
        54           Al  tau(  54) = (   0.7758140   0.5906310   0.4093690  )
        55           Al  tau(  55) = (   0.5906310   0.7758140   0.4093690  )
        56           Al  tau(  56) = (   0.9093690   0.9093690   0.7241860  )
        57           Al  tau(  57) = (   0.7241860   0.9093690   0.9093690  )
        58           Al  tau(  58) = (   0.9093690   0.7241860   0.9093690  )

     number of k points=     4  Fermi-Dirac smearing, width (Ry)=  0.0032
                       cart. coord. in units 2pi/alat
        k(    1) = (   0.1250000   0.1250000   0.1250000), wk =   0.2500000
        k(    2) = (   0.1250000   0.1250000   0.3750000), wk =   0.7500000
        k(    3) = (   0.1250000   0.3750000   0.3750000), wk =   0.7500000
        k(    4) = (   0.3750000   0.3750000   0.3750000), wk =   0.2500000

     Dense  grid:  1064995 G-vectors     FFT dimensions: ( 128, 128, 128)

     Estimated max dynamical RAM per process >     143.34 MB

     Estimated total dynamical RAM >       6.72 GB

     Initial potential from superposition of free atoms

     starting charge  411.91406, renormalised to  412.00000
     Starting wfcs are  266 randomized atomic wfcs

     total cpu time spent up to now is        4.4 secs

     Self-consistent Calculation

     iteration #  1     ecut=   100.00 Ry     beta= 0.70
     Davidson diagonalization with overlap
     ethr =  1.00E-02,  avg # of iterations =  7.0

     Threshold (ethr) on eigenvalues was too large:
     Diagonalizing with lowered threshold

     Davidson diagonalization with overlap
     ethr =  3.06E-04,  avg # of iterations =  3.2

     total cpu time spent up to now is       29.9 secs

     total energy              =   -4149.82032244 Ry
     estimated scf accuracy    <       1.16808344 Ry

     iteration #  2     ecut=   100.00 Ry     beta= 0.70
     Davidson diagonalization with overlap
     ethr =  2.84E-04,  avg # of iterations =  8.0

     total cpu time spent up to now is       43.9 secs

     total energy              =   -4149.63030982 Ry
     estimated scf accuracy    <       3.09882633 Ry

     iteration #  3     ecut=   100.00 Ry     beta= 0.70
     Davidson diagonalization with overlap
     ethr =  2.84E-04,  avg # of iterations =  3.0

     total cpu time spent up to now is       55.3 secs

     total energy              =   -4150.22237328 Ry
     estimated scf accuracy    <       0.35837875 Ry

     iteration #  4     ecut=   100.00 Ry     beta= 0.70
     Davidson diagonalization with overlap
     ethr =  8.70E-05,  avg # of iterations =  2.0

     total cpu time spent up to now is       65.6 secs

     total energy              =   -4150.27994634 Ry
     estimated scf accuracy    <       0.00618081 Ry

     iteration #  5     ecut=   100.00 Ry     beta= 0.70
     Davidson diagonalization with overlap
     c_bands:  2 eigenvalues not converged
     c_bands:  1 eigenvalues not converged
     ethr =  1.50E-06,  avg # of iterations = 14.0

     total cpu time spent up to now is       83.2 secs

     total energy              =   -4150.28023914 Ry
     estimated scf accuracy    <       0.00625612 Ry

     iteration #  6     ecut=   100.00 Ry     beta= 0.70
     Davidson diagonalization with overlap
     ethr =  1.50E-06,  avg # of iterations =  7.5

     total cpu time spent up to now is       95.3 secs

     total energy              =   -4150.28071472 Ry
     estimated scf accuracy    <       0.01036301 Ry

     iteration #  7     ecut=   100.00 Ry     beta= 0.70
     Davidson diagonalization with overlap
     ethr =  1.50E-06,  avg # of iterations =  2.0

     total cpu time spent up to now is      105.2 secs

     total energy              =   -4150.28158939 Ry
     estimated scf accuracy    <       0.00011748 Ry

     iteration #  8     ecut=   100.00 Ry     beta= 0.70
     Davidson diagonalization with overlap
     ethr =  2.85E-08,  avg # of iterations =  4.0

     total cpu time spent up to now is      116.3 secs

     total energy              =   -4150.28161439 Ry
     estimated scf accuracy    <       0.00000434 Ry

     iteration #  9     ecut=   100.00 Ry     beta= 0.70
     Davidson diagonalization with overlap
     ethr =  1.05E-09,  avg # of iterations =  4.2

     total cpu time spent up to now is      128.1 secs

     total energy              =   -4150.28161539 Ry
     estimated scf accuracy    <       0.00000248 Ry

     iteration # 10     ecut=   100.00 Ry     beta= 0.70
     Davidson diagonalization with overlap
     ethr =  6.03E-10,  avg # of iterations =  2.2

     total cpu time spent up to now is      138.6 secs

     total energy              =   -4150.28161578 Ry
     estimated scf accuracy    <       0.00000023 Ry

     iteration # 11     ecut=   100.00 Ry     beta= 0.70
     Davidson diagonalization with overlap
     ethr =  5.57E-11,  avg # of iterations =  2.5

     total cpu time spent up to now is      149.0 secs

     End of self-consistent calculation

          k = 0.1250 0.1250 0.1250 (133171 PWs)   bands (ev):

   -69.8397 -69.8395 -69.7731 -69.7731 -69.7731 -69.7730 -69.7729 -69.7729
   -69.7729 -69.7728 -69.5802 -69.5797 -69.5797 -69.5792 -69.5792 -69.5791
   -69.5790 -69.5790 -69.5790 -69.5785 -69.5785 -69.5780 -69.5780 -69.5780
   -69.5780 -69.5780 -69.5779 -69.5779 -69.5779 -69.5779 -69.5779 -69.5778
   -69.5778 -69.5778 -36.6066 -36.6066 -36.6066 -36.6065 -36.6065 -36.6065
   -36.5487 -36.5487 -36.5482 -36.5482 -36.5482 -36.5480 -36.5480 -36.5480
   -36.5404 -36.5404 -36.5404 -36.5404 -36.5404 -36.5403 -36.5403 -36.5403
   -36.5402 -36.5402 -36.5402 -36.5402 -36.5402 -36.5402 -36.5401 -36.5401
   -36.3752 -36.3703 -36.3703 -36.3682 -36.3682 -36.3676 -36.3660 -36.3652
   -36.3652 -36.3625 -36.3622 -36.3622 -36.3622 -36.3621 -36.3621 -36.3615
   -36.3615 -36.3612 -36.3611 -36.3610 -36.3610 -36.3585 -36.3585 -36.3583
   -36.3583 -36.3580 -36.3573 -36.3573 -36.3573 -36.3572 -36.3570 -36.3570
   -36.3570 -36.3561 -36.3552 -36.3552 -36.3545 -36.3545 -36.3541 -36.3536
   -36.3536 -36.3534 -36.3534 -36.3533 -36.3532 -36.3520 -36.3520 -36.3506
   -36.3506 -36.3499 -36.3494 -36.3494 -36.3491 -36.3489 -36.3489 -36.3487
   -36.3485 -36.3484 -36.3479 -36.3479 -36.3472 -36.3472 -36.3472 -36.3468
   -36.3464 -36.3464 -36.3460 -36.3457 -36.3457 -36.3453 -36.3451 -36.3451
    -2.3681  -1.7779  -1.3118  -1.3118  -1.0779  -0.8973  -0.7858  -0.7858
    -0.4628  -0.4628   0.2086   0.2086   0.5885   0.5885   0.6552   0.8057
     0.9924   1.1407   1.1870   1.1870   1.3256   1.3256   1.7946   2.0190
     2.0190   2.4685   2.5400   2.5400   2.6619   2.8216   2.8342   2.8342
     3.2144   3.4128   3.4128   3.5978   3.5978   3.6130   3.6950   4.0124
     4.0124   4.0845   4.2044   4.2137   4.2455   4.2455   4.4450   4.4450
     4.6034   4.6034   4.7426   4.7426   4.8100   4.8100   4.8569   4.8891
     5.2196   5.2196   5.2896   5.4868   5.4991   5.5101   5.5101   5.5639
     5.5639   5.7232   5.7232   5.9751   6.0256   6.0256   6.1107   6.1107
     6.1150   6.1194   6.3438   6.6218   6.6218   6.8213   7.1039   7.1039
     7.1549   7.4808   7.5176   7.5176   7.7128   7.9856   7.9856   8.1180
     8.1180   8.2031   8.2557   8.3343   8.3343   8.4912   8.4912   8.5985
     8.5985   8.9348   8.9955   9.0175   9.0175   9.1666   9.1872   9.1922
     9.1922   9.3597   9.4935   9.4935   9.6040   9.6399   9.6400

          k = 0.1250 0.1250 0.3750 (133141 PWs)   bands (ev):

   -69.8397 -69.8395 -69.7731 -69.7731 -69.7731 -69.7730 -69.7729 -69.7729
   -69.7729 -69.7728 -69.5801 -69.5799 -69.5796 -69.5794 -69.5792 -69.5791
   -69.5790 -69.5790 -69.5788 -69.5786 -69.5783 -69.5781 -69.5780 -69.5780
   -69.5780 -69.5780 -69.5779 -69.5779 -69.5779 -69.5779 -69.5779 -69.5778
   -69.5778 -69.5778 -36.6066 -36.6066 -36.6066 -36.6065 -36.6065 -36.6065
   -36.5487 -36.5487 -36.5482 -36.5482 -36.5482 -36.5480 -36.5480 -36.5480
   -36.5404 -36.5404 -36.5404 -36.5403 -36.5403 -36.5403 -36.5403 -36.5403
   -36.5402 -36.5402 -36.5402 -36.5402 -36.5402 -36.5402 -36.5401 -36.5401
   -36.3741 -36.3723 -36.3698 -36.3689 -36.3676 -36.3669 -36.3668 -36.3659
   -36.3638 -36.3628 -36.3624 -36.3622 -36.3620 -36.3618 -36.3618 -36.3615
   -36.3613 -36.3613 -36.3609 -36.3608 -36.3606 -36.3597 -36.3593 -36.3592
   -36.3583 -36.3580 -36.3578 -36.3575 -36.3573 -36.3572 -36.3563 -36.3562
   -36.3561 -36.3559 -36.3551 -36.3549 -36.3549 -36.3547 -36.3544 -36.3543
   -36.3543 -36.3540 -36.3526 -36.3523 -36.3519 -36.3515 -36.3511 -36.3510
   -36.3509 -36.3504 -36.3500 -36.3500 -36.3492 -36.3490 -36.3489 -36.3488
   -36.3486 -36.3483 -36.3481 -36.3478 -36.3472 -36.3468 -36.3467 -36.3466
   -36.3463 -36.3461 -36.3459 -36.3459 -36.3458 -36.3457 -36.3454 -36.3453
    -2.2269  -1.9758  -1.3561  -1.1891  -1.1481  -0.9777  -0.9450  -0.8352
    -0.3266  -0.0796   0.0364   0.2372   0.4751   0.5194   0.6269   0.8327
     0.8365   1.0595   1.4475   1.4487   1.6311   1.6977   1.9283   2.0392
     2.1181   2.1473   2.3503   2.5342   2.6920   2.6971   2.7504   2.7878
     3.0051   3.3812   3.3973   3.4007   3.4893   3.5048   3.6570   3.7120
     3.7899   3.8340   4.0316   4.1383   4.2149   4.2271   4.2509   4.2872
     4.4440   4.4727   4.6130   4.6506   4.8169   4.8774   5.0572   5.0631
     5.1148   5.2325   5.2586   5.3012   5.5114   5.6198   5.6798   5.7410
     6.0113   6.0195   6.2197   6.2510   6.3417   6.4418   6.4727   6.6739
     6.6993   6.7194   6.9520   6.9529   7.0511   7.1032   7.1554   7.1645
     7.1993   7.2404   7.4437   7.4863   7.4929   7.5568   7.6936   7.7189
     7.8019   7.9331   8.0211   8.0582   8.1330   8.1941   8.1964   8.4106
     8.4444   8.5060   8.5460   8.7248   8.7347   8.7609   8.7758   8.9385
     8.9685   9.0604   9.0724   9.0910   9.2845   9.5070   9.5349

          k = 0.1250 0.3750 0.3750 (133144 PWs)   bands (ev):

   -69.8397 -69.8395 -69.7731 -69.7731 -69.7731 -69.7730 -69.7729 -69.7729
   -69.7729 -69.7728 -69.5800 -69.5799 -69.5797 -69.5795 -69.5792 -69.5792
   -69.5789 -69.5789 -69.5786 -69.5785 -69.5783 -69.5782 -69.5780 -69.5780
   -69.5780 -69.5780 -69.5779 -69.5779 -69.5779 -69.5779 -69.5779 -69.5778
   -69.5778 -69.5778 -36.6066 -36.6066 -36.6066 -36.6065 -36.6065 -36.6065
   -36.5487 -36.5487 -36.5482 -36.5482 -36.5482 -36.5480 -36.5480 -36.5480
   -36.5404 -36.5404 -36.5403 -36.5403 -36.5403 -36.5403 -36.5403 -36.5403
   -36.5402 -36.5402 -36.5402 -36.5402 -36.5402 -36.5402 -36.5401 -36.5401
   -36.3732 -36.3721 -36.3706 -36.3698 -36.3677 -36.3673 -36.3660 -36.3654
   -36.3640 -36.3633 -36.3627 -36.3626 -36.3618 -36.3616 -36.3614 -36.3611
   -36.3611 -36.3609 -36.3609 -36.3608 -36.3607 -36.3602 -36.3602 -36.3599
   -36.3584 -36.3582 -36.3577 -36.3577 -36.3572 -36.3572 -36.3562 -36.3559
   -36.3553 -36.3552 -36.3551 -36.3551 -36.3546 -36.3544 -36.3543 -36.3542
   -36.3539 -36.3536 -36.3531 -36.3526 -36.3520 -36.3517 -36.3510 -36.3506
   -36.3504 -36.3503 -36.3502 -36.3502 -36.3493 -36.3491 -36.3489 -36.3486
   -36.3484 -36.3483 -36.3482 -36.3478 -36.3473 -36.3472 -36.3472 -36.3465
   -36.3465 -36.3463 -36.3460 -36.3457 -36.3455 -36.3455 -36.3454 -36.3453
    -2.1003  -1.9504  -1.5591  -1.4221  -1.1369  -0.9984  -0.8885  -0.8723
    -0.1083  -0.0298   0.1785   0.2464   0.3041   0.5738   0.7587   0.7739
     0.9824   1.1719   1.2776   1.5882   1.7966   1.8072   1.9549   1.9823
     2.0797   2.3875   2.4678   2.4787   2.4889   2.4988   2.7602   2.8173
     3.0101   3.0658   3.0999   3.1748   3.2290   3.3001   3.3223   3.5946
     3.6585   3.8190   3.8265   3.9076   4.1404   4.1630   4.3888   4.5276
     4.5558   4.5795   4.7943   4.8759   4.9846   5.0211   5.0833   5.1768
     5.3109   5.4572   5.4885   5.5629   5.5830   5.6990   5.7624   5.8283
     5.8393   6.1380   6.1568   6.4131   6.4247   6.4446   6.6601   6.7165
     6.7397   6.7790   6.8054   7.0110   7.0389   7.0767   7.0833   7.1463
     7.2038   7.2365   7.4309   7.4983   7.6002   7.6137   7.7051   7.7696
     7.8526   7.8719   7.9588   8.0448   8.2099   8.2910   8.3048   8.3382
     8.5335   8.5344   8.5636   8.6220   8.6716   8.7448   8.8249   8.9651
     9.0121   9.0225   9.1748   9.2079   9.3048   9.3518   9.4077

          k = 0.3750 0.3750 0.3750 (133113 PWs)   bands (ev):

   -69.8397 -69.8395 -69.7731 -69.7731 -69.7731 -69.7730 -69.7729 -69.7729
   -69.7729 -69.7728 -69.5799 -69.5797 -69.5797 -69.5795 -69.5795 -69.5794
   -69.5787 -69.5786 -69.5786 -69.5784 -69.5784 -69.5783 -69.5780 -69.5780
   -69.5780 -69.5780 -69.5780 -69.5780 -69.5779 -69.5779 -69.5779 -69.5778
   -69.5778 -69.5778 -36.6066 -36.6066 -36.6066 -36.6065 -36.6065 -36.6065
   -36.5487 -36.5487 -36.5482 -36.5482 -36.5482 -36.5480 -36.5480 -36.5480
   -36.5404 -36.5404 -36.5403 -36.5403 -36.5403 -36.5403 -36.5403 -36.5403
   -36.5402 -36.5402 -36.5402 -36.5402 -36.5402 -36.5402 -36.5401 -36.5401
   -36.3724 -36.3712 -36.3712 -36.3695 -36.3695 -36.3688 -36.3649 -36.3642
   -36.3642 -36.3633 -36.3633 -36.3631 -36.3615 -36.3613 -36.3613 -36.3610
   -36.3610 -36.3610 -36.3607 -36.3607 -36.3604 -36.3604 -36.3603 -36.3595
   -36.3595 -36.3586 -36.3586 -36.3583 -36.3571 -36.3570 -36.3554 -36.3554
   -36.3554 -36.3547 -36.3547 -36.3546 -36.3544 -36.3544 -36.3543 -36.3540
   -36.3533 -36.3533 -36.3530 -36.3525 -36.3525 -36.3520 -36.3516 -36.3516
   -36.3506 -36.3502 -36.3502 -36.3501 -36.3501 -36.3499 -36.3484 -36.3481
   -36.3481 -36.3481 -36.3475 -36.3475 -36.3474 -36.3468 -36.3467 -36.3466
   -36.3466 -36.3464 -36.3462 -36.3462 -36.3455 -36.3455 -36.3455 -36.3455
    -1.9910  -1.9044  -1.4210  -1.4210  -1.4088  -1.1664  -1.1664  -1.0098
     0.3336   0.3516   0.3516   0.3599   0.3599   0.7325   0.7325   0.8378
     0.9553   0.9553   1.4585   1.6965   1.6965   1.7567   1.7808   1.7808
     1.8668   2.3181   2.3181   2.3355   2.3543   2.4235   2.5174   2.5174
     2.8708   3.2045   3.2045   3.2090   3.2090   3.4458   3.7995   3.7995
     3.8002   4.0084   4.0084   4.0195   4.0807   4.0890   4.2113   4.2113
     4.5242   4.5376   4.5376   4.7482   4.7482   4.9742   5.1797   5.1797
     5.4239   5.4239   5.4909   5.5819   5.5819   5.7684   5.7739   6.0374
     6.0374   6.1554   6.1554   6.2673   6.3041   6.3041   6.5779   6.8907
     6.8907   7.0152   7.0903   7.1148   7.1148   7.1922   7.3571   7.3571
     7.3722   7.3722   7.4740   7.5153   7.5153   7.7856   7.8337   7.9469
     7.9469   7.9973   7.9973   8.1136   8.2267   8.2568   8.2779   8.2779
     8.4088   8.4088   8.6822   8.7677   8.7834   8.7834   8.8469   8.8469
     8.8546   8.9627   9.0809   9.0809   9.1235   9.1235   9.2020

     the Fermi energy is     6.4385 ev

!    total energy              =   -4150.28161582 Ry
     estimated scf accuracy    <          6.3E-09 Ry
     smearing contrib. (-TS)   =      -0.01012995 Ry
     internal energy E=F+TS    =   -4150.27148587 Ry

     The total energy is F=E-TS. E is the sum of the following terms:
     one-electron contribution =   -3350.56818685 Ry
     hartree contribution      =    1618.61199173 Ry
     xc contribution           =    -590.10788835 Ry
     ewald contribution        =   -1828.20740240 Ry

     convergence has been achieved in  11 iterations

     Forces acting on atoms (cartesian axes, Ry/au):

     atom    1 type  1   force =     0.00000000    0.00000000    0.00000000
     atom    2 type  1   force =     0.00030226   -0.00030226   -0.00030226
     atom    3 type  1   force =    -0.00030226    0.00030226   -0.00030226
     atom    4 type  1   force =    -0.00030226   -0.00030226    0.00030226
     atom    5 type  1   force =     0.00030703    0.00030703    0.00030703
     atom    6 type  1   force =    -0.00018494    0.00018494    0.00063515
     atom    7 type  1   force =    -0.00062774    0.00018890    0.00018890
     atom    8 type  1   force =    -0.00018494    0.00063515    0.00018494
     atom    9 type  1   force =     0.00018494   -0.00018494    0.00063515
     atom   10 type  1   force =     0.00063515   -0.00018494    0.00018494
     atom   11 type  1   force =     0.00018890   -0.00062774    0.00018890
     atom   12 type  1   force =     0.00018890    0.00018890   -0.00062774
     atom   13 type  1   force =     0.00063515    0.00018494   -0.00018494
     atom   14 type  1   force =     0.00018494    0.00063515   -0.00018494
     atom   15 type  1   force =    -0.00018494   -0.00018494   -0.00063515
     atom   16 type  1   force =    -0.00063515   -0.00018494   -0.00018494
     atom   17 type  1   force =    -0.00018494   -0.00063515   -0.00018494
     atom   18 type  1   force =     0.00000000    0.00000000    0.00000000
     atom   19 type  1   force =     0.00030703   -0.00030703   -0.00030703
     atom   20 type  1   force =    -0.00030703    0.00030703   -0.00030703
     atom   21 type  1   force =    -0.00030703   -0.00030703    0.00030703
     atom   22 type  1   force =     0.00030226    0.00030226    0.00030226
     atom   23 type  1   force =    -0.00018890    0.00018890    0.00062774
     atom   24 type  1   force =    -0.00063515    0.00018494    0.00018494
     atom   25 type  1   force =    -0.00018890    0.00062774    0.00018890
     atom   26 type  1   force =     0.00018890   -0.00018890    0.00062774
     atom   27 type  1   force =     0.00062774   -0.00018890    0.00018890
     atom   28 type  1   force =     0.00018494   -0.00063515    0.00018494
     atom   29 type  1   force =     0.00018494    0.00018494   -0.00063515
     atom   30 type  1   force =     0.00062774    0.00018890   -0.00018890
     atom   31 type  1   force =     0.00018890    0.00062774   -0.00018890
     atom   32 type  1   force =    -0.00018890   -0.00018890   -0.00062774
     atom   33 type  1   force =    -0.00062774   -0.00018890   -0.00018890
     atom   34 type  1   force =    -0.00018890   -0.00062774   -0.00018890
     atom   35 type  2   force =     0.00054778   -0.00054778    0.00080490
     atom   36 type  2   force =    -0.00080490   -0.00054778   -0.00054778
     atom   37 type  2   force =     0.00054778    0.00080490   -0.00054778
     atom   38 type  2   force =    -0.00054778    0.00054778    0.00080490
     atom   39 type  2   force =     0.00080490    0.00054778   -0.00054778
     atom   40 type  2   force =    -0.00054778   -0.00080490   -0.00054778
     atom   41 type  2   force =    -0.00054778   -0.00054778   -0.00080490
     atom   42 type  2   force =     0.00080490   -0.00054778    0.00054778
     atom   43 type  2   force =    -0.00054778    0.00080490    0.00054778
     atom   44 type  2   force =     0.00054837    0.00054837   -0.00080535
     atom   45 type  2   force =    -0.00080535    0.00054837    0.00054837
     atom   46 type  2   force =     0.00054837   -0.00080535    0.00054837
     atom   47 type  2   force =     0.00054837   -0.00054837    0.00080535
     atom   48 type  2   force =    -0.00080535   -0.00054837   -0.00054837
     atom   49 type  2   force =     0.00054837    0.00080535   -0.00054837
     atom   50 type  2   force =    -0.00054837    0.00054837    0.00080535
     atom   51 type  2   force =     0.00080535    0.00054837   -0.00054837
     atom   52 type  2   force =    -0.00054837   -0.00080535   -0.00054837
     atom   53 type  2   force =    -0.00054837   -0.00054837   -0.00080535
     atom   54 type  2   force =     0.00080535   -0.00054837    0.00054837
     atom   55 type  2   force =    -0.00054837    0.00080535    0.00054837
     atom   56 type  2   force =     0.00054778    0.00054778   -0.00080490
     atom   57 type  2   force =    -0.00080490    0.00054778    0.00054778
     atom   58 type  2   force =     0.00054778   -0.00080490    0.00054778

     Total force =     0.006592     Total SCF correction =     0.000235


     Computing stress (Cartesian axis) and pressure

          total   stress  (Ry/bohr**3)                   (kbar)     P=       -0.02
  -0.00000013   0.00000000   0.00000000           -0.02        0.00        0.00
   0.00000000  -0.00000013   0.00000000            0.00       -0.02        0.00
   0.00000000   0.00000000  -0.00000013            0.00        0.00       -0.02


     Writing output data file /home/kartickr/QuantumEspresso_runs/CPU/Al12Mg17/temp/Al12Mg17_200ecut.save/
 
     init_run     :      4.17s CPU      4.37s WALL (       1 calls)
     electrons    :    142.40s CPU    144.90s WALL (       1 calls)
     forces       :      2.09s CPU      2.21s WALL (       1 calls)
     stress       :     36.28s CPU     36.50s WALL (       1 calls)

     Called by init_run:
     wfcinit      :      3.57s CPU      3.73s WALL (       1 calls)
     potinit      :      0.10s CPU      0.12s WALL (       1 calls)
     hinit0       :      0.13s CPU      0.14s WALL (       1 calls)

     Called by electrons:
     c_bands      :    128.10s CPU    129.94s WALL (      12 calls)
     sum_band     :     13.35s CPU     13.56s WALL (      12 calls)
     v_of_rho     :      0.80s CPU      0.89s WALL (      12 calls)
     mix_rho      :      0.15s CPU      0.17s WALL (      12 calls)

     Called by c_bands:
     init_us_2    :      2.47s CPU      2.50s WALL (     108 calls)
     cegterg      :    121.79s CPU    123.58s WALL (      48 calls)

     Called by *egterg:
     cdiaghg      :      8.83s CPU      9.01s WALL (     283 calls)
     h_psi        :     75.27s CPU     76.45s WALL (     291 calls)
     g_psi        :      0.46s CPU      0.47s WALL (     239 calls)

     Called by h_psi:
     h_psi:calbec :     11.55s CPU     11.89s WALL (     291 calls)
     vloc_psi     :     51.76s CPU     52.39s WALL (     291 calls)
     add_vuspsi   :     10.91s CPU     10.97s WALL (     291 calls)

     General routines
     calbec       :     13.44s CPU     13.87s WALL (     311 calls)
     fft          :      0.56s CPU      0.65s WALL (     145 calls)
     ffts         :      0.03s CPU      0.03s WALL (      12 calls)
     fftw         :     57.88s CPU     58.61s WALL (   72002 calls)
 
     Parallel routines
     fft_scatt_xy :      7.87s CPU      7.97s WALL (   72159 calls)
     fft_scatt_yz :     36.91s CPU     37.47s WALL (   72159 calls)
 
     PWSCF        :   3m 6.55s CPU   3m23.89s WALL

 
   This run was terminated on:  11: 5: 2  27Aug2021            

=------------------------------------------------------------------------------=
   JOB DONE.
=------------------------------------------------------------------------------=
[1630042502.998369] [node1:37407:0]          mpool.c:43   UCX  WARN  object 0x5992240 was not returned to mpool ucp_requests
[1630042502.998391] [node1:37407:0]          mpool.c:43   UCX  WARN  object 0x5993040 was not returned to mpool ucp_requests
[1630042503.016689] [node1:37416:0]          mpool.c:43   UCX  WARN  object 0x4be8440 was not returned to mpool ucp_requests
[1630042503.016707] [node1:37416:0]          mpool.c:43   UCX  WARN  object 0x4bf05c0 was not returned to mpool ucp_requests
[1630042503.022065] [node1:37404:0]          mpool.c:43   UCX  WARN  object 0x5531340 was not returned to mpool ucp_requests
[1630042503.015323] [node1:37395:0]          mpool.c:43   UCX  WARN  object 0x4412340 was not returned to mpool ucp_requests
[1630042503.015342] [node1:37395:0]          mpool.c:43   UCX  WARN  object 0x4417c80 was not returned to mpool ucp_requests
[1630042503.013725] [node1:37397:0]          mpool.c:43   UCX  WARN  object 0x6179080 was not returned to mpool ucp_requests
[1630042503.013745] [node1:37397:0]          mpool.c:43   UCX  WARN  object 0x4f32300 was not returned to mpool ucp_requests
[1630042503.025986] [node1:37409:0]          mpool.c:43   UCX  WARN  object 0x4a68240 was not returned to mpool ucp_requests
[1630042503.026004] [node1:37409:0]          mpool.c:43   UCX  WARN  object 0x4a6b880 was not returned to mpool ucp_requests
[1630042503.023492] [node1:37391:0]          mpool.c:43   UCX  WARN  object 0x4ff6600 was not returned to mpool ucp_requests
[1630042503.020816] [node1:37387:0]          mpool.c:43   UCX  WARN  object 0x47e9300 was not returned to mpool ucp_requests
[1630042503.036202] [node1:37389:0]          mpool.c:43   UCX  WARN  object 0x56e8880 was not returned to mpool ucp_requests
[1630042503.064271] [node1:37392:0]          mpool.c:43   UCX  WARN  object 0x5216780 was not returned to mpool ucp_requests
[1630042503.034747] [node1:37393:0]          mpool.c:43   UCX  WARN  object 0x434e100 was not returned to mpool ucp_requests
[1630042503.034766] [node1:37393:0]          mpool.c:43   UCX  WARN  object 0x4352540 was not returned to mpool ucp_requests
[1630042503.065265] [node1:37405:0]          mpool.c:43   UCX  WARN  object 0x5132840 was not returned to mpool ucp_requests
[1630042503.065282] [node1:37405:0]          mpool.c:43   UCX  WARN  object 0x5133800 was not returned to mpool ucp_requests
