
     Program PWSCF v.7.4.1 starts on 30Jun2025 at  7:47:58 

     This program is part of the open-source Quantum ESPRESSO suite
     for quantum simulation of materials; please cite
         "P. Giannozzi et al., J. Phys.:Condens. Matter 21 395502 (2009);
         "P. Giannozzi et al., J. Phys.:Condens. Matter 29 465901 (2017);
         "P. Giannozzi et al., J. Chem. Phys. 152 154105 (2020);
          URL http://www.quantum-espresso.org", 
     in publications or presentations arising from this work. More details at
     http://www.quantum-espresso.org/quote

     Parallel version (MPI), running on     8 processors

     MPI processes distributed on     1 nodes
     561076 MiB available memory on the printing compute node when the environment starts
 
     Reading input from CrI3.relax.in

     Current dimensions of program PWSCF are:
     Max number of different atomic species (ntypx) = 10
     Max number of k-points (npk) =  40000
     Max angular momentum in pseudopotentials (lmaxx) =  4

     gamma-point specific algorithms are used
     Found identity + (  0.0000  0.3333  0.0000) symmetry
     This is a supercell, fractional translations are disabled
 
     R & G space division:  proc/nbgrp/npool/nimage =       8
     Subspace diagonalization in iterative solution of the eigenvalue problem:
     a serial algorithm will be used

 
     Parallelization info
     --------------------
     sticks:   dense  smooth     PW     G-vecs:    dense   smooth      PW
     Min        5376    5376   1342              1459944  1459944  182468
     Max        5378    5378   1344              1459955  1459955  182478
     Sum       43021   43021  10747             11679623 11679623 1459781
 
     Using Slab Decomposition
 


     bravais-lattice index     =            0
     lattice parameter (alat)  =      39.5059  a.u.
     unit-cell volume          =   86454.5616 (a.u.)^3
     number of atoms/cell      =          144
     number of atomic types    =            4
     number of electrons       =      1260.00
     number of Kohn-Sham states=          756
     kinetic-energy cutoff     =     100.0000  Ry
     charge density cutoff     =     400.0000  Ry
     scf convergence threshold =      1.0E-07
     mixing beta               =       0.2000
     number of iterations used =            8  plain     mixing
     energy convergence thresh.=      1.0E-04
     force convergence thresh. =      1.0E-03
     press convergence thresh. =      5.0E-01
     Exchange-correlation= PBE
                           (   1   4   3   4   0   0   0)
     nstep                     =           50


     GPU acceleration is ACTIVE.  1 visible GPUs per MPI rank

     Message from routine print_cuda_info:
     High GPU oversubscription detected. Are you sure this is what you want?

     celldm(1)=  39.505946  celldm(2)=   0.000000  celldm(3)=   0.000000
     celldm(4)=   0.000000  celldm(5)=   0.000000  celldm(6)=   0.000000

     crystal axes: (cart. coord. in units of alat)
               a(1) = (   1.000000   0.000000   0.000000 )  
               a(2) = (  -0.500000   0.866025   0.000000 )  
               a(3) = (   0.000000   0.000000   1.619086 )  

     reciprocal axes: (cart. coord. in units 2 pi/alat)
               b(1) = (  1.000000  0.577350 -0.000000 )  
               b(2) = (  0.000000  1.154701  0.000000 )  
               b(3) = (  0.000000 -0.000000  0.617632 )  


     PseudoPot. # 1 for Cr read from file:
     ./Cr.upf
     MD5 check sum: 41892f80c335c8b1e803fd21ab4016b0
     Pseudo is Norm-conserving + core correction, Zval = 14.0
     Generated using ONCVPSP code by D. R. Hamann
     Using radial grid of 1638 points,  6 beta functions with: 
                l(1) =   0
                l(2) =   0
                l(3) =   1
                l(4) =   1
                l(5) =   2
                l(6) =   2

     PseudoPot. # 2 for I  read from file:
     ./I.upf
     MD5 check sum: 9cb9d574a1900baf8aa34970b08b8049
     Pseudo is Norm-conserving + core correction, Zval =  7.0
     Generated using ONCVPSP code by D. R. Hamann
     Using radial grid of 1188 points,  8 beta functions with: 
                l(1) =   0
                l(2) =   0
                l(3) =   1
                l(4) =   1
                l(5) =   2
                l(6) =   2
                l(7) =   3
                l(8) =   3

     PseudoPot. # 3 for Cr read from file:
     ./Cr.upf
     MD5 check sum: 41892f80c335c8b1e803fd21ab4016b0
     Pseudo is Norm-conserving + core correction, Zval = 14.0
     Generated using ONCVPSP code by D. R. Hamann
     Using radial grid of 1638 points,  6 beta functions with: 
                l(1) =   0
                l(2) =   0
                l(3) =   1
                l(4) =   1
                l(5) =   2
                l(6) =   2

     PseudoPot. # 4 for I  read from file:
     ./I.upf
     MD5 check sum: 9cb9d574a1900baf8aa34970b08b8049
     Pseudo is Norm-conserving + core correction, Zval =  7.0
     Generated using ONCVPSP code by D. R. Hamann
     Using radial grid of 1188 points,  8 beta functions with: 
                l(1) =   0
                l(2) =   0
                l(3) =   1
                l(4) =   1
                l(5) =   2
                l(6) =   2
                l(7) =   3
                l(8) =   3

     atomic species   valence    mass     pseudopotential
     Cr1              14.00    52.00000     Cr( 1.00)
     I1                7.00   127.00000     I ( 1.00)
     Cr2              14.00    52.00000     Cr( 1.00)
     I2                7.00   127.00000     I ( 1.00)

     Starting magnetic structure 
     atomic species   magnetization
     Cr1             0.100
     I1              0.100
     Cr2             0.100
     I2              0.100

     No symmetry found



   Cartesian axes

     site n.     atom                  positions (alat units)
         1        I1     tau(   1) = (   0.2300406   0.1281450   0.5062527  )
         2        I1     tau(   2) = (   0.0519406   0.2309428   0.5065696  )
         3        I1     tau(   3) = (   0.0521934   0.0256021   0.5067711  )
         4        Cr1    tau(   4) = (  -0.0553634   0.2244141   0.5813635  )
         5        Cr1    tau(   5) = (   0.2780713   0.0319056   0.5813635  )
         6        I1     tau(   6) = (   0.1705913   0.2306732   0.6559559  )
         7        I1     tau(   7) = (  -0.0073654   0.1282219   0.6561574  )
         8        I1     tau(   8) = (   0.1707102   0.0253816   0.6564743  )
         9        I2     tau(   9) = (   0.0078184   0.1281450   0.9626117  )
        10        I2     tau(  10) = (   0.1630517   0.2309428   0.9629285  )
        11        I2     tau(  11) = (   0.1633045   0.0256021   0.9631300  )
        12        Cr2    tau(  12) = (   0.0557478   0.2244141   1.0377224  )
        13        Cr2    tau(  13) = (   0.0558491   0.0319056   1.0377224  )
        14        I2     tau(  14) = (  -0.0516309   0.2306732   1.1123149  )
        15        I2     tau(  15) = (   0.1037457   0.1282219   1.1125163  )
        16        I2     tau(  16) = (   0.2818213   0.0253816   1.1128332  )
        17        I1     tau(  17) = (   0.0633739   0.4168201   0.5062527  )
        18        I1     tau(  18) = (  -0.1147261   0.5196179   0.5065696  )
        19        I1     tau(  19) = (  -0.1144732   0.3142773   0.5067711  )
        20        Cr1    tau(  20) = (  -0.2220300   0.5130893   0.5813635  )
        21        Cr1    tau(  21) = (   0.1114046   0.3205807   0.5813635  )
        22        I1     tau(  22) = (   0.0039246   0.5193484   0.6559559  )
        23        I1     tau(  23) = (  -0.1740321   0.4168970   0.6561574  )
        24        I1     tau(  24) = (   0.0040435   0.3140568   0.6564743  )
        25        I2     tau(  25) = (  -0.1588483   0.4168201   0.9626117  )
        26        I2     tau(  26) = (  -0.0036150   0.5196179   0.9629285  )
        27        I2     tau(  27) = (  -0.0033621   0.3142773   0.9631300  )
        28        Cr2    tau(  28) = (  -0.1109189   0.5130893   1.0377224  )
        29        Cr2    tau(  29) = (  -0.1108176   0.3205807   1.0377224  )
        30        I2     tau(  30) = (  -0.2182976   0.5193484   1.1123149  )
        31        I2     tau(  31) = (  -0.0629210   0.4168970   1.1125163  )
        32        I2     tau(  32) = (   0.1151546   0.3140568   1.1128332  )
        33        I1     tau(  33) = (  -0.1032927   0.7054953   0.5062527  )
        34        I1     tau(  34) = (  -0.2813928   0.8082931   0.5065696  )
        35        I1     tau(  35) = (  -0.2811399   0.6029524   0.5067711  )
        36        Cr1    tau(  36) = (  -0.3886967   0.8017644   0.5813635  )
        37        Cr1    tau(  37) = (  -0.0552620   0.6092558   0.5813635  )
        38        I1     tau(  38) = (  -0.1627421   0.8080235   0.6559559  )
        39        I1     tau(  39) = (  -0.3406987   0.7055721   0.6561574  )
        40        I1     tau(  40) = (  -0.1626232   0.6027319   0.6564743  )
        41        I2     tau(  41) = (  -0.3255150   0.7054953   0.9626117  )
        42        I2     tau(  42) = (  -0.1702817   0.8082931   0.9629285  )
        43        I2     tau(  43) = (  -0.1700288   0.6029524   0.9631300  )
        44        Cr2    tau(  44) = (  -0.2775856   0.8017644   1.0377224  )
        45        Cr2    tau(  45) = (  -0.2774843   0.6092558   1.0377224  )
        46        I2     tau(  46) = (  -0.3849643   0.8080235   1.1123149  )
        47        I2     tau(  47) = (  -0.2295876   0.7055721   1.1125163  )
        48        I2     tau(  48) = (  -0.0515121   0.6027319   1.1128332  )
        49        I1     tau(  49) = (   0.5633739   0.1281450   0.5062527  )
        50        I1     tau(  50) = (   0.3852739   0.2309428   0.5065696  )
        51        I1     tau(  51) = (   0.3855267   0.0256021   0.5067711  )
        52        Cr1    tau(  52) = (   0.2779700   0.2244141   0.5813635  )
        53        Cr1    tau(  53) = (   0.6114046   0.0319056   0.5813635  )
        54        I1     tau(  54) = (   0.5039246   0.2306732   0.6559559  )
        55        I1     tau(  55) = (   0.3259679   0.1282219   0.6561574  )
        56        I1     tau(  56) = (   0.5040435   0.0253816   0.6564743  )
        57        I2     tau(  57) = (   0.3411517   0.1281450   0.9626117  )
        58        I2     tau(  58) = (   0.4963850   0.2309428   0.9629285  )
        59        I2     tau(  59) = (   0.4966379   0.0256021   0.9631300  )
        60        Cr2    tau(  60) = (   0.3890811   0.2244141   1.0377224  )
        61        Cr2    tau(  61) = (   0.3891824   0.0319056   1.0377224  )
        62        I2     tau(  62) = (   0.2817024   0.2306732   1.1123149  )
        63        I2     tau(  63) = (   0.4370791   0.1282219   1.1125163  )
        64        I2     tau(  64) = (   0.6151546   0.0253816   1.1128332  )
        65        I1     tau(  65) = (   0.3967073   0.4168201   0.5062527  )
        66        I1     tau(  66) = (   0.2186072   0.5196179   0.5065696  )
        67        I1     tau(  67) = (   0.2188601   0.3142773   0.5067711  )
        68        Cr1    tau(  68) = (   0.1113033   0.5130893   0.5813635  )
        69        Cr1    tau(  69) = (   0.4447380   0.3205807   0.5813635  )
        70        I1     tau(  70) = (   0.3372579   0.5193484   0.6559559  )
        71        I1     tau(  71) = (   0.1593013   0.4168970   0.6561574  )
        72        I1     tau(  72) = (   0.3373768   0.3140568   0.6564743  )
        73        I2     tau(  73) = (   0.1744850   0.4168201   0.9626117  )
        74        I2     tau(  74) = (   0.3297183   0.5196179   0.9629285  )
        75        I2     tau(  75) = (   0.3299712   0.3142773   0.9631300  )
        76        Cr2    tau(  76) = (   0.2224144   0.5130893   1.0377224  )
        77        Cr2    tau(  77) = (   0.2225157   0.3205807   1.0377224  )
        78        I2     tau(  78) = (   0.1150357   0.5193484   1.1123149  )
        79        I2     tau(  79) = (   0.2704124   0.4168970   1.1125163  )
        80        I2     tau(  80) = (   0.4484879   0.3140568   1.1128332  )
        81        I1     tau(  81) = (   0.2300406   0.7054953   0.5062527  )
        82        I1     tau(  82) = (   0.0519406   0.8082931   0.5065696  )
        83        I1     tau(  83) = (   0.0521934   0.6029524   0.5067711  )
        84        Cr1    tau(  84) = (  -0.0553634   0.8017644   0.5813635  )
        85        Cr1    tau(  85) = (   0.2780713   0.6092558   0.5813635  )
        86        I1     tau(  86) = (   0.1705913   0.8080235   0.6559559  )
        87        I1     tau(  87) = (  -0.0073654   0.7055721   0.6561574  )
        88        I1     tau(  88) = (   0.1707102   0.6027319   0.6564743  )
        89        I2     tau(  89) = (   0.0078184   0.7054953   0.9626117  )
        90        I2     tau(  90) = (   0.1630517   0.8082931   0.9629285  )
        91        I2     tau(  91) = (   0.1633045   0.6029524   0.9631300  )
        92        Cr2    tau(  92) = (   0.0557478   0.8017644   1.0377224  )
        93        Cr2    tau(  93) = (   0.0558491   0.6092558   1.0377224  )
        94        I2     tau(  94) = (  -0.0516310   0.8080235   1.1123149  )
        95        I2     tau(  95) = (   0.1037457   0.7055721   1.1125163  )
        96        I2     tau(  96) = (   0.2818213   0.6027319   1.1128332  )
        97        I1     tau(  97) = (   0.8967073   0.1281450   0.5062527  )
        98        I1     tau(  98) = (   0.7186072   0.2309428   0.5065696  )
        99        I1     tau(  99) = (   0.7188601   0.0256021   0.5067711  )
       100        Cr1    tau( 100) = (   0.6113033   0.2244141   0.5813635  )
       101        Cr1    tau( 101) = (   0.9447380   0.0319056   0.5813635  )
       102        I1     tau( 102) = (   0.8372579   0.2306732   0.6559559  )
       103        I1     tau( 103) = (   0.6593013   0.1282219   0.6561574  )
       104        I1     tau( 104) = (   0.8373768   0.0253816   0.6564743  )
       105        I2     tau( 105) = (   0.6744850   0.1281450   0.9626117  )
       106        I2     tau( 106) = (   0.8297183   0.2309428   0.9629285  )
       107        I2     tau( 107) = (   0.8299712   0.0256021   0.9631300  )
       108        Cr2    tau( 108) = (   0.7224144   0.2244141   1.0377224  )
       109        Cr2    tau( 109) = (   0.7225157   0.0319056   1.0377224  )
       110        I2     tau( 110) = (   0.6150357   0.2306732   1.1123149  )
       111        I2     tau( 111) = (   0.7704124   0.1282219   1.1125163  )
       112        I2     tau( 112) = (   0.9484879   0.0253816   1.1128332  )
       113        I1     tau( 113) = (   0.7300406   0.4168201   0.5062527  )
       114        I1     tau( 114) = (   0.5519406   0.5196179   0.5065696  )
       115        I1     tau( 115) = (   0.5521934   0.3142773   0.5067711  )
       116        Cr1    tau( 116) = (   0.4446366   0.5130893   0.5813635  )
       117        Cr1    tau( 117) = (   0.7780713   0.3205807   0.5813635  )
       118        I1     tau( 118) = (   0.6705913   0.5193484   0.6559559  )
       119        I1     tau( 119) = (   0.4926346   0.4168970   0.6561574  )
       120        I1     tau( 120) = (   0.6707102   0.3140568   0.6564743  )
       121        I2     tau( 121) = (   0.5078184   0.4168201   0.9626117  )
       122        I2     tau( 122) = (   0.6630517   0.5196179   0.9629285  )
       123        I2     tau( 123) = (   0.6633045   0.3142773   0.9631300  )
       124        Cr2    tau( 124) = (   0.5557477   0.5130893   1.0377224  )
       125        Cr2    tau( 125) = (   0.5558491   0.3205807   1.0377224  )
       126        I2     tau( 126) = (   0.4483691   0.5193484   1.1123149  )
       127        I2     tau( 127) = (   0.6037457   0.4168970   1.1125163  )
       128        I2     tau( 128) = (   0.7818213   0.3140568   1.1128332  )
       129        I1     tau( 129) = (   0.5633739   0.7054953   0.5062527  )
       130        I1     tau( 130) = (   0.3852739   0.8082931   0.5065696  )
       131        I1     tau( 131) = (   0.3855267   0.6029524   0.5067711  )
       132        Cr1    tau( 132) = (   0.2779700   0.8017644   0.5813635  )
       133        Cr1    tau( 133) = (   0.6114046   0.6092558   0.5813635  )
       134        I1     tau( 134) = (   0.5039246   0.8080235   0.6559559  )
       135        I1     tau( 135) = (   0.3259679   0.7055721   0.6561574  )
       136        I1     tau( 136) = (   0.5040435   0.6027319   0.6564743  )
       137        I2     tau( 137) = (   0.3411517   0.7054953   0.9626117  )
       138        I2     tau( 138) = (   0.4963850   0.8082931   0.9629285  )
       139        I2     tau( 139) = (   0.4966379   0.6029524   0.9631300  )
       140        Cr2    tau( 140) = (   0.3890811   0.8017644   1.0377224  )
       141        Cr2    tau( 141) = (   0.3891824   0.6092558   1.0377224  )
       142        I2     tau( 142) = (   0.2817024   0.8080235   1.1123149  )
       143        I2     tau( 143) = (   0.4370791   0.7055721   1.1125163  )
       144        I2     tau( 144) = (   0.6151546   0.6027319   1.1128332  )

     --------------------------------------------
     DFT-D3 Dispersion Correction (3-body terms):
     --------------------------------------------
       Reference C6 values for interpolation: 

         atom   Coordination number   C6
         Cr1        0.000          1381.48
         Cr1        1.827           571.38
         Cr1       10.619           306.69
         Cr2        0.000          1381.48
         Cr2        1.827           571.38
         Cr2       10.619           306.69
         I1         0.000           703.93
         I1         0.997           717.00
         I2         0.000           703.93
         I2         0.997           717.00

       Values used:

         atom   Coordination number  R0_AB[au]  C6      C8
         I1         3.281            3.532    717.00  65856.01
         I1         3.290            3.532    717.00  65856.01
         I1         3.293            3.532    717.00  65856.01
         Cr1        5.740            3.252    571.38  52732.00
         Cr1        5.738            3.252    571.38  52732.00
         I1         3.296            3.532    717.00  65856.01
         I1         3.293            3.532    717.00  65856.01
         I1         3.283            3.532    717.00  65856.01
         I2         3.283            3.532    717.00  65856.01
         I2         3.293            3.532    717.00  65856.01
         I2         3.296            3.532    717.00  65856.01
         Cr2        5.740            3.252    571.38  52732.00
         Cr2        5.738            3.252    571.38  52732.00
         I2         3.293            3.532    717.00  65856.01
         I2         3.290            3.532    717.00  65856.01
         I2         3.281            3.532    717.00  65856.01
         I1         3.281            3.532    717.00  65856.01
         I1         3.290            3.532    717.00  65856.01
         I1         3.293            3.532    717.00  65856.01
         Cr1        5.740            3.252    571.38  52732.00
         Cr1        5.738            3.252    571.38  52732.00
         I1         3.296            3.532    717.00  65856.01
         I1         3.293            3.532    717.00  65856.01
         I1         3.283            3.532    717.00  65856.01
         I2         3.283            3.532    717.00  65856.01
         I2         3.293            3.532    717.00  65856.01
         I2         3.296            3.532    717.00  65856.01
         Cr2        5.740            3.252    571.38  52732.00
         Cr2        5.738            3.252    571.38  52732.00
         I2         3.293            3.532    717.00  65856.01
         I2         3.290            3.532    717.00  65856.01
         I2         3.281            3.532    717.00  65856.01
         I1         3.281            3.532    717.00  65856.01
         I1         3.290            3.532    717.00  65856.01
         I1         3.293            3.532    717.00  65856.01
         Cr1        5.740            3.252    571.38  52732.00
         Cr1        5.738            3.252    571.38  52732.00
         I1         3.296            3.532    717.00  65856.01
         I1         3.293            3.532    717.00  65856.01
         I1         3.283            3.532    717.00  65856.01
         I2         3.283            3.532    717.00  65856.01
         I2         3.293            3.532    717.00  65856.01
         I2         3.296            3.532    717.00  65856.01
         Cr2        5.740            3.252    571.38  52732.00
         Cr2        5.738            3.252    571.38  52732.00
         I2         3.293            3.532    717.00  65856.01
         I2         3.290            3.532    717.00  65856.01
         I2         3.281            3.532    717.00  65856.01
         I1         3.281            3.532    717.00  65856.01
         I1         3.290            3.532    717.00  65856.01
         I1         3.293            3.532    717.00  65856.01
         Cr1        5.740            3.252    571.38  52732.00
         Cr1        5.738            3.252    571.38  52732.00
         I1         3.296            3.532    717.00  65856.01
         I1         3.293            3.532    717.00  65856.01
         I1         3.283            3.532    717.00  65856.01
         I2         3.283            3.532    717.00  65856.01
         I2         3.293            3.532    717.00  65856.01
         I2         3.296            3.532    717.00  65856.01
         Cr2        5.740            3.252    571.38  52732.00
         Cr2        5.738            3.252    571.38  52732.00
         I2         3.293            3.532    717.00  65856.01
         I2         3.290            3.532    717.00  65856.01
         I2         3.281            3.532    717.00  65856.01
         I1         3.281            3.532    717.00  65856.01
         I1         3.290            3.532    717.00  65856.01
         I1         3.293            3.532    717.00  65856.01
         Cr1        5.740            3.252    571.38  52732.00
         Cr1        5.738            3.252    571.38  52732.00
         I1         3.296            3.532    717.00  65856.01
         I1         3.293            3.532    717.00  65856.01
         I1         3.283            3.532    717.00  65856.01
         I2         3.283            3.532    717.00  65856.01
         I2         3.293            3.532    717.00  65856.01
         I2         3.296            3.532    717.00  65856.01
         Cr2        5.740            3.252    571.38  52732.00
         Cr2        5.738            3.252    571.38  52732.00
         I2         3.293            3.532    717.00  65856.01
         I2         3.290            3.532    717.00  65856.01
         I2         3.281            3.532    717.00  65856.01
         I1         3.281            3.532    717.00  65856.01
         I1         3.290            3.532    717.00  65856.01
         I1         3.293            3.532    717.00  65856.01
         Cr1        5.740            3.252    571.38  52732.00
         Cr1        5.738            3.252    571.38  52732.00
         I1         3.296            3.532    717.00  65856.01
         I1         3.293            3.532    717.00  65856.01
         I1         3.283            3.532    717.00  65856.01
         I2         3.283            3.532    717.00  65856.01
         I2         3.293            3.532    717.00  65856.01
         I2         3.296            3.532    717.00  65856.01
         Cr2        5.740            3.252    571.38  52732.00
         Cr2        5.738            3.252    571.38  52732.00
         I2         3.293            3.532    717.00  65856.01
         I2         3.290            3.532    717.00  65856.01
         I2         3.281            3.532    717.00  65856.01
         I1         3.281            3.532    717.00  65856.01
         I1         3.290            3.532    717.00  65856.01
         I1         3.293            3.532    717.00  65856.01
         Cr1        5.740            3.252    571.38  52732.00
         Cr1        5.738            3.252    571.38  52732.00
         I1         3.296            3.532    717.00  65856.01
         I1         3.293            3.532    717.00  65856.01
         I1         3.283            3.532    717.00  65856.01
         I2         3.283            3.532    717.00  65856.01
         I2         3.293            3.532    717.00  65856.01
         I2         3.296            3.532    717.00  65856.01
         Cr2        5.740            3.252    571.38  52732.00
         Cr2        5.738            3.252    571.38  52732.00
         I2         3.293            3.532    717.00  65856.01
         I2         3.290            3.532    717.00  65856.01
         I2         3.281            3.532    717.00  65856.01
         I1         3.281            3.532    717.00  65856.01
         I1         3.290            3.532    717.00  65856.01
         I1         3.293            3.532    717.00  65856.01
         Cr1        5.740            3.252    571.38  52732.00
         Cr1        5.738            3.252    571.38  52732.00
         I1         3.296            3.532    717.00  65856.01
         I1         3.293            3.532    717.00  65856.01
         I1         3.283            3.532    717.00  65856.01
         I2         3.283            3.532    717.00  65856.01
         I2         3.293            3.532    717.00  65856.01
         I2         3.296            3.532    717.00  65856.01
         Cr2        5.740            3.252    571.38  52732.00
         Cr2        5.738            3.252    571.38  52732.00
         I2         3.293            3.532    717.00  65856.01
         I2         3.290            3.532    717.00  65856.01
         I2         3.281            3.532    717.00  65856.01
         I1         3.281            3.532    717.00  65856.01
         I1         3.290            3.532    717.00  65856.01
         I1         3.293            3.532    717.00  65856.01
         Cr1        5.740            3.252    571.38  52732.00
         Cr1        5.738            3.252    571.38  52732.00
         I1         3.296            3.532    717.00  65856.01
         I1         3.293            3.532    717.00  65856.01
         I1         3.283            3.532    717.00  65856.01
         I2         3.283            3.532    717.00  65856.01
         I2         3.293            3.532    717.00  65856.01
         I2         3.296            3.532    717.00  65856.01
         Cr2        5.740            3.252    571.38  52732.00
         Cr2        5.738            3.252    571.38  52732.00
         I2         3.293            3.532    717.00  65856.01
         I2         3.290            3.532    717.00  65856.01
         I2         3.281            3.532    717.00  65856.01

         Molecular C6 ( Ry / a.u.^6 ) =  13954869.22


     number of k points=     1  Fermi-Dirac smearing, width (Ry)=  0.0032
                       cart. coord. in units 2pi/alat
        k(    1) = (   0.0000000   0.0000000   0.0000000), wk =   1.0000000

     Dense  grid:  5839812 G-vectors     FFT dimensions: ( 256, 256, 432)

     Estimated max dynamical RAM per process >      13.83 GB

     Estimated total dynamical RAM >     110.63 GB
     Generating pointlists ...
     new r_m :   0.0540 (alat units)  2.1331 (a.u.) for type    1
     new r_m :   0.0540 (alat units)  2.1331 (a.u.) for type    2
     new r_m :   0.0540 (alat units)  2.1331 (a.u.) for type    3
     new r_m :   0.0540 (alat units)  2.1331 (a.u.) for type    4

     Initial potential from superposition of free atoms

     starting charge    1259.9403, renormalised to    1260.0000

     negative rho (up, down):  2.374E-04 1.942E-04
     Starting wfcs are  792 randomized atomic wfcs

     total cpu time spent up to now is       44.6 secs

     Self-consistent Calculation

     iteration #  1     ecut=   100.00 Ry     beta= 0.20
     Davidson diagonalization with overlap
     ethr =  1.00E-02,  avg # of iterations =  2.0

     total cpu time spent up to now is       84.4 secs

     total energy              =   -9207.68332728 Ry
     estimated scf accuracy    <      28.06920883 Ry

     total magnetization       =   107.94 Bohr mag/cell
     absolute magnetization    =   108.25 Bohr mag/cell

     iteration #  2     ecut=   100.00 Ry     beta= 0.20
     Davidson diagonalization with overlap
     ethr =  2.23E-03,  avg # of iterations =  2.0

     total cpu time spent up to now is      122.6 secs

     total energy              =   -9212.37867624 Ry
     estimated scf accuracy    <       8.88688943 Ry

     total magnetization       =   107.97 Bohr mag/cell
     absolute magnetization    =   110.04 Bohr mag/cell

     iteration #  3     ecut=   100.00 Ry     beta= 0.20
     Davidson diagonalization with overlap
     ethr =  7.05E-04,  avg # of iterations =  1.0

     total cpu time spent up to now is      159.3 secs

     total energy              =   -9214.27069877 Ry
     estimated scf accuracy    <       2.24659126 Ry

     total magnetization       =   108.00 Bohr mag/cell
     absolute magnetization    =   111.04 Bohr mag/cell

     iteration #  4     ecut=   100.00 Ry     beta= 0.20
     Davidson diagonalization with overlap
     ethr =  1.78E-04,  avg # of iterations =  2.5

     total cpu time spent up to now is      206.1 secs

     total energy              =   -9214.49268657 Ry
     estimated scf accuracy    <       6.50176813 Ry

     total magnetization       =   108.00 Bohr mag/cell
     absolute magnetization    =   129.57 Bohr mag/cell

     iteration #  5     ecut=   100.00 Ry     beta= 0.20
     Davidson diagonalization with overlap
     ethr =  1.78E-04,  avg # of iterations =  2.0

     negative rho (up, down):  2.470E-05 4.266E-06

     total cpu time spent up to now is      246.4 secs

     total energy              =   -9214.99764100 Ry
     estimated scf accuracy    <       0.74408260 Ry

     total magnetization       =   108.00 Bohr mag/cell
     absolute magnetization    =   122.12 Bohr mag/cell

     iteration #  6     ecut=   100.00 Ry     beta= 0.20
     Davidson diagonalization with overlap
     ethr =  5.91E-05,  avg # of iterations =  2.5

     negative rho (up, down):  1.260E-04 8.724E-05

     total cpu time spent up to now is      291.1 secs

     total energy              =   -9215.22083642 Ry
     estimated scf accuracy    <       0.83185251 Ry

     total magnetization       =   108.00 Bohr mag/cell
     absolute magnetization    =   129.65 Bohr mag/cell

     iteration #  7     ecut=   100.00 Ry     beta= 0.20
     Davidson diagonalization with overlap
     ethr =  5.91E-05,  avg # of iterations =  1.0

     negative rho (up, down):  9.686E-05 6.656E-05

     total cpu time spent up to now is      328.2 secs

     total energy              =   -9215.21812396 Ry
     estimated scf accuracy    <       0.26625270 Ry

     total magnetization       =   108.00 Bohr mag/cell
     absolute magnetization    =   130.05 Bohr mag/cell

     iteration #  8     ecut=   100.00 Ry     beta= 0.20
     Davidson diagonalization with overlap
     ethr =  2.11E-05,  avg # of iterations =  1.0

     negative rho (up, down):  3.181E-05 2.163E-05

     total cpu time spent up to now is      365.8 secs

     total energy              =   -9215.18319509 Ry
     estimated scf accuracy    <       0.14897565 Ry

     total magnetization       =   108.00 Bohr mag/cell
     absolute magnetization    =   130.02 Bohr mag/cell

     iteration #  9     ecut=   100.00 Ry     beta= 0.20
     Davidson diagonalization with overlap
     ethr =  1.18E-05,  avg # of iterations =  2.0

     negative rho (up, down):  3.917E-05 2.739E-05

     total cpu time spent up to now is      408.8 secs

     total energy              =   -9215.21421862 Ry
     estimated scf accuracy    <       0.01148959 Ry

     total magnetization       =   108.00 Bohr mag/cell
     absolute magnetization    =   130.76 Bohr mag/cell

     iteration # 10     ecut=   100.00 Ry     beta= 0.20
     Davidson diagonalization with overlap
     ethr =  9.12E-07,  avg # of iterations =  3.5

     negative rho (up, down):  3.282E-05 2.545E-05

     total cpu time spent up to now is      456.5 secs

     total energy              =   -9215.21779327 Ry
     estimated scf accuracy    <       0.04836979 Ry

     total magnetization       =   108.00 Bohr mag/cell
     absolute magnetization    =   131.89 Bohr mag/cell

     iteration # 11     ecut=   100.00 Ry     beta= 0.20
     Davidson diagonalization with overlap
     ethr =  9.12E-07,  avg # of iterations =  2.0

     negative rho (up, down):  8.875E-06 8.460E-06

     total cpu time spent up to now is      498.2 secs

     total energy              =   -9215.21275498 Ry
     estimated scf accuracy    <       0.01774190 Ry

     total magnetization       =   108.00 Bohr mag/cell
     absolute magnetization    =   132.91 Bohr mag/cell

     iteration # 12     ecut=   100.00 Ry     beta= 0.20
     Davidson diagonalization with overlap
     ethr =  9.12E-07,  avg # of iterations =  2.0

     negative rho (up, down):  4.109E-06 4.213E-06

     total cpu time spent up to now is      541.6 secs

     total energy              =   -9215.21688875 Ry
     estimated scf accuracy    <       0.00030413 Ry

     total magnetization       =   108.00 Bohr mag/cell
     absolute magnetization    =   133.47 Bohr mag/cell

     iteration # 13     ecut=   100.00 Ry     beta= 0.20
     Davidson diagonalization with overlap
     ethr =  2.41E-08,  avg # of iterations =  3.0

     negative rho (up, down):  9.965E-07 1.178E-06

     total cpu time spent up to now is      584.8 secs

     total energy              =   -9215.21706426 Ry
     estimated scf accuracy    <       0.00010620 Ry

     total magnetization       =   108.00 Bohr mag/cell
     absolute magnetization    =   133.62 Bohr mag/cell

     iteration # 14     ecut=   100.00 Ry     beta= 0.20
     Davidson diagonalization with overlap
     ethr =  8.43E-09,  avg # of iterations =  2.0

     total cpu time spent up to now is      630.0 secs

     total energy              =   -9215.21713353 Ry
     estimated scf accuracy    <       0.00009446 Ry

     total magnetization       =   108.00 Bohr mag/cell
     absolute magnetization    =   133.85 Bohr mag/cell

     iteration # 15     ecut=   100.00 Ry     beta= 0.20
     Davidson diagonalization with overlap
     ethr =  7.50E-09,  avg # of iterations =  2.0

     total cpu time spent up to now is      671.8 secs

     total energy              =   -9215.21714690 Ry
     estimated scf accuracy    <       0.00001741 Ry

     total magnetization       =   108.00 Bohr mag/cell
     absolute magnetization    =   133.96 Bohr mag/cell

     iteration # 16     ecut=   100.00 Ry     beta= 0.20
     Davidson diagonalization with overlap
     ethr =  1.38E-09,  avg # of iterations =  3.5

     total cpu time spent up to now is      716.5 secs

     total energy              =   -9215.21715421 Ry
     estimated scf accuracy    <       0.00001307 Ry

     total magnetization       =   108.00 Bohr mag/cell
     absolute magnetization    =   134.02 Bohr mag/cell

     iteration # 17     ecut=   100.00 Ry     beta= 0.20
     Davidson diagonalization with overlap
     ethr =  1.04E-09,  avg # of iterations =  2.0

     total cpu time spent up to now is      759.6 secs

     total energy              =   -9215.21715673 Ry
     estimated scf accuracy    <       0.00000049 Ry

     total magnetization       =   108.00 Bohr mag/cell
     absolute magnetization    =   134.04 Bohr mag/cell

     iteration # 18     ecut=   100.00 Ry     beta= 0.20
     Davidson diagonalization with overlap
     ethr =  3.90E-11,  avg # of iterations =  4.0

     total cpu time spent up to now is      804.7 secs

     total energy              =   -9215.21715702 Ry
     estimated scf accuracy    <       0.00000026 Ry

     total magnetization       =   108.00 Bohr mag/cell
     absolute magnetization    =   134.05 Bohr mag/cell

     iteration # 19     ecut=   100.00 Ry     beta= 0.20
     Davidson diagonalization with overlap
     ethr =  2.07E-11,  avg # of iterations =  2.0

     total cpu time spent up to now is      846.9 secs

     total energy              =   -9215.21715710 Ry
     estimated scf accuracy    <       0.00000011 Ry

     total magnetization       =   108.00 Bohr mag/cell
     absolute magnetization    =   134.06 Bohr mag/cell

     iteration # 20     ecut=   100.00 Ry     beta= 0.20
     Davidson diagonalization with overlap
     ethr =  8.61E-12,  avg # of iterations =  2.0
 
     Magnetic moment per site  (integrated on atomic sphere of radius R)
     atom   1 (R=0.054)  charge=  4.1345  magn= -0.0685
     atom   2 (R=0.054)  charge=  4.1356  magn= -0.0680
     atom   3 (R=0.054)  charge=  4.1357  magn= -0.0679
     atom   4 (R=0.054)  charge= 12.4154  magn=  3.0175
     atom   5 (R=0.054)  charge= 12.4142  magn=  3.0189
     atom   6 (R=0.054)  charge=  4.1356  magn= -0.0680
     atom   7 (R=0.054)  charge=  4.1354  magn= -0.0680
     atom   8 (R=0.054)  charge=  4.1345  magn= -0.0685
     atom   9 (R=0.054)  charge=  4.1343  magn= -0.0685
     atom  10 (R=0.054)  charge=  4.1355  magn= -0.0680
     atom  11 (R=0.054)  charge=  4.1355  magn= -0.0679
     atom  12 (R=0.054)  charge= 12.4154  magn=  3.0175
     atom  13 (R=0.054)  charge= 12.4142  magn=  3.0189
     atom  14 (R=0.054)  charge=  4.1356  magn= -0.0679
     atom  15 (R=0.054)  charge=  4.1356  magn= -0.0680
     atom  16 (R=0.054)  charge=  4.1346  magn= -0.0685
     atom  17 (R=0.054)  charge=  4.1346  magn= -0.0685
     atom  18 (R=0.054)  charge=  4.1356  magn= -0.0680
     atom  19 (R=0.054)  charge=  4.1356  magn= -0.0679
     atom  20 (R=0.054)  charge= 12.4154  magn=  3.0175
     atom  21 (R=0.054)  charge= 12.4141  magn=  3.0189
     atom  22 (R=0.054)  charge=  4.1356  magn= -0.0679
     atom  23 (R=0.054)  charge=  4.1354  magn= -0.0680
     atom  24 (R=0.054)  charge=  4.1345  magn= -0.0685
     atom  25 (R=0.054)  charge=  4.1344  magn= -0.0685
     atom  26 (R=0.054)  charge=  4.1355  magn= -0.0680
     atom  27 (R=0.054)  charge=  4.1355  magn= -0.0680
     atom  28 (R=0.054)  charge= 12.4154  magn=  3.0175
     atom  29 (R=0.054)  charge= 12.4142  magn=  3.0189
     atom  30 (R=0.054)  charge=  4.1357  magn= -0.0679
     atom  31 (R=0.054)  charge=  4.1356  magn= -0.0680
     atom  32 (R=0.054)  charge=  4.1345  magn= -0.0685
     atom  33 (R=0.054)  charge=  4.1346  magn= -0.0685
     atom  34 (R=0.054)  charge=  4.1356  magn= -0.0680
     atom  35 (R=0.054)  charge=  4.1356  magn= -0.0679
     atom  36 (R=0.054)  charge= 12.4153  magn=  3.0175
     atom  37 (R=0.054)  charge= 12.4141  magn=  3.0189
     atom  38 (R=0.054)  charge=  4.1355  magn= -0.0679
     atom  39 (R=0.054)  charge=  4.1354  magn= -0.0680
     atom  40 (R=0.054)  charge=  4.1345  magn= -0.0685
     atom  41 (R=0.054)  charge=  4.1345  magn= -0.0685
     atom  42 (R=0.054)  charge=  4.1353  magn= -0.0680
     atom  43 (R=0.054)  charge=  4.1356  magn= -0.0679
     atom  44 (R=0.054)  charge= 12.4154  magn=  3.0175
     atom  45 (R=0.054)  charge= 12.4141  magn=  3.0189
     atom  46 (R=0.054)  charge=  4.1355  magn= -0.0679
     atom  47 (R=0.054)  charge=  4.1356  magn= -0.0680
     atom  48 (R=0.054)  charge=  4.1345  magn= -0.0685
     atom  49 (R=0.054)  charge=  4.1345  magn= -0.0685
     atom  50 (R=0.054)  charge=  4.1356  magn= -0.0680
     atom  51 (R=0.054)  charge=  4.1357  magn= -0.0679
     atom  52 (R=0.054)  charge= 12.4154  magn=  3.0175
     atom  53 (R=0.054)  charge= 12.4142  magn=  3.0189
     atom  54 (R=0.054)  charge=  4.1355  magn= -0.0679
     atom  55 (R=0.054)  charge=  4.1355  magn= -0.0680
     atom  56 (R=0.054)  charge=  4.1345  magn= -0.0685
     atom  57 (R=0.054)  charge=  4.1345  magn= -0.0685
     atom  58 (R=0.054)  charge=  4.1354  magn= -0.0680
     atom  59 (R=0.054)  charge=  4.1355  magn= -0.0680
     atom  60 (R=0.054)  charge= 12.4154  magn=  3.0175
     atom  61 (R=0.054)  charge= 12.4142  magn=  3.0189
     atom  62 (R=0.054)  charge=  4.1355  magn= -0.0679
     atom  63 (R=0.054)  charge=  4.1354  magn= -0.0680
     atom  64 (R=0.054)  charge=  4.1346  magn= -0.0685
     atom  65 (R=0.054)  charge=  4.1345  magn= -0.0685
     atom  66 (R=0.054)  charge=  4.1356  magn= -0.0680
     atom  67 (R=0.054)  charge=  4.1357  magn= -0.0679
     atom  68 (R=0.054)  charge= 12.4153  magn=  3.0175
     atom  69 (R=0.054)  charge= 12.4141  magn=  3.0189
     atom  70 (R=0.054)  charge=  4.1355  magn= -0.0680
     atom  71 (R=0.054)  charge=  4.1355  magn= -0.0680
     atom  72 (R=0.054)  charge=  4.1344  magn= -0.0685
     atom  73 (R=0.054)  charge=  4.1344  magn= -0.0685
     atom  74 (R=0.054)  charge=  4.1354  magn= -0.0680
     atom  75 (R=0.054)  charge=  4.1355  magn= -0.0679
     atom  76 (R=0.054)  charge= 12.4154  magn=  3.0175
     atom  77 (R=0.054)  charge= 12.4141  magn=  3.0189
     atom  78 (R=0.054)  charge=  4.1357  magn= -0.0679
     atom  79 (R=0.054)  charge=  4.1356  magn= -0.0680
     atom  80 (R=0.054)  charge=  4.1346  magn= -0.0685
     atom  81 (R=0.054)  charge=  4.1345  magn= -0.0685
     atom  82 (R=0.054)  charge=  4.1355  magn= -0.0680
     atom  83 (R=0.054)  charge=  4.1357  magn= -0.0679
     atom  84 (R=0.054)  charge= 12.4154  magn=  3.0175
     atom  85 (R=0.054)  charge= 12.4141  magn=  3.0189
     atom  86 (R=0.054)  charge=  4.1355  magn= -0.0679
     atom  87 (R=0.054)  charge=  4.1354  magn= -0.0680
     atom  88 (R=0.054)  charge=  4.1345  magn= -0.0685
     atom  89 (R=0.054)  charge=  4.1345  magn= -0.0685
     atom  90 (R=0.054)  charge=  4.1354  magn= -0.0680
     atom  91 (R=0.054)  charge=  4.1355  magn= -0.0679
     atom  92 (R=0.054)  charge= 12.4154  magn=  3.0175
     atom  93 (R=0.054)  charge= 12.4142  magn=  3.0189
     atom  94 (R=0.054)  charge=  4.1357  magn= -0.0679
     atom  95 (R=0.054)  charge=  4.1356  magn= -0.0680
     atom  96 (R=0.054)  charge=  4.1345  magn= -0.0685
     atom  97 (R=0.054)  charge=  4.1346  magn= -0.0685
     atom  98 (R=0.054)  charge=  4.1355  magn= -0.0680
     atom  99 (R=0.054)  charge=  4.1357  magn= -0.0679
     atom 100 (R=0.054)  charge= 12.4154  magn=  3.0175
     atom 101 (R=0.054)  charge= 12.4142  magn=  3.0189
     atom 102 (R=0.054)  charge=  4.1356  magn= -0.0679
     atom 103 (R=0.054)  charge=  4.1354  magn= -0.0680
     atom 104 (R=0.054)  charge=  4.1345  magn= -0.0685
     atom 105 (R=0.054)  charge=  4.1345  magn= -0.0685
     atom 106 (R=0.054)  charge=  4.1355  magn= -0.0680
     atom 107 (R=0.054)  charge=  4.1356  magn= -0.0679
     atom 108 (R=0.054)  charge= 12.4154  magn=  3.0175
     atom 109 (R=0.054)  charge= 12.4141  magn=  3.0189
     atom 110 (R=0.054)  charge=  4.1357  magn= -0.0679
     atom 111 (R=0.054)  charge=  4.1355  magn= -0.0680
     atom 112 (R=0.054)  charge=  4.1346  magn= -0.0685
     atom 113 (R=0.054)  charge=  4.1346  magn= -0.0685
     atom 114 (R=0.054)  charge=  4.1356  magn= -0.0680
     atom 115 (R=0.054)  charge=  4.1355  magn= -0.0679
     atom 116 (R=0.054)  charge= 12.4154  magn=  3.0175
     atom 117 (R=0.054)  charge= 12.4142  magn=  3.0189
     atom 118 (R=0.054)  charge=  4.1356  magn= -0.0679
     atom 119 (R=0.054)  charge=  4.1355  magn= -0.0680
     atom 120 (R=0.054)  charge=  4.1344  magn= -0.0685
     atom 121 (R=0.054)  charge=  4.1344  magn= -0.0685
     atom 122 (R=0.054)  charge=  4.1355  magn= -0.0680
     atom 123 (R=0.054)  charge=  4.1356  magn= -0.0680
     atom 124 (R=0.054)  charge= 12.4154  magn=  3.0175
     atom 125 (R=0.054)  charge= 12.4142  magn=  3.0189
     atom 126 (R=0.054)  charge=  4.1356  magn= -0.0679
     atom 127 (R=0.054)  charge=  4.1355  magn= -0.0680
     atom 128 (R=0.054)  charge=  4.1346  magn= -0.0685
     atom 129 (R=0.054)  charge=  4.1346  magn= -0.0685
     atom 130 (R=0.054)  charge=  4.1354  magn= -0.0679
     atom 131 (R=0.054)  charge=  4.1357  magn= -0.0679
     atom 132 (R=0.054)  charge= 12.4154  magn=  3.0175
     atom 133 (R=0.054)  charge= 12.4141  magn=  3.0189
     atom 134 (R=0.054)  charge=  4.1355  magn= -0.0679
     atom 135 (R=0.054)  charge=  4.1355  magn= -0.0680
     atom 136 (R=0.054)  charge=  4.1344  magn= -0.0685
     atom 137 (R=0.054)  charge=  4.1345  magn= -0.0685
     atom 138 (R=0.054)  charge=  4.1355  magn= -0.0680
     atom 139 (R=0.054)  charge=  4.1355  magn= -0.0679
     atom 140 (R=0.054)  charge= 12.4153  magn=  3.0175
     atom 141 (R=0.054)  charge= 12.4142  magn=  3.0189
     atom 142 (R=0.054)  charge=  4.1357  magn= -0.0679
     atom 143 (R=0.054)  charge=  4.1355  magn= -0.0680
     atom 144 (R=0.054)  charge=  4.1346  magn= -0.0685

     total cpu time spent up to now is      890.7 secs

     End of self-consistent calculation

 ------ SPIN UP ------------


          k = 0.0000 0.0000 0.0000 (729891 PWs)   bands (ev):

   -74.3772 -74.3772 -74.3771 -74.3771 -74.3771 -74.3771 -74.3771 -74.3771
   -74.3771 -74.3771 -74.3771 -74.3771 -74.3771 -74.3771 -74.3771 -74.3771
   -74.3770 -74.3770 -74.3756 -74.3756 -74.3755 -74.3755 -74.3755 -74.3755
   -74.3755 -74.3755 -74.3755 -74.3755 -74.3755 -74.3755 -74.3755 -74.3755
   -74.3755 -74.3755 -74.3755 -74.3755 -45.7770 -45.7769 -45.7769 -45.7769
   -45.7769 -45.7769 -45.7769 -45.7769 -45.7769 -45.7769 -45.7768 -45.7768
   -45.7768 -45.7768 -45.7768 -45.7768 -45.7768 -45.7768 -45.7754 -45.7754
   -45.7754 -45.7754 -45.7754 -45.7754 -45.7754 -45.7754 -45.7754 -45.7754
   -45.7754 -45.7753 -45.7753 -45.7753 -45.7753 -45.7753 -45.7753 -45.7753
   -45.7710 -45.7709 -45.7709 -45.7709 -45.7709 -45.7709 -45.7709 -45.7708
   -45.7708 -45.7708 -45.7708 -45.7708 -45.7708 -45.7708 -45.7708 -45.7708
   -45.7707 -45.7707 -45.7707 -45.7707 -45.7704 -45.7704 -45.7704 -45.7704
   -45.7704 -45.7704 -45.7704 -45.7704 -45.7704 -45.7704 -45.7704 -45.7703
   -45.7701 -45.7701 -45.7701 -45.7701 -45.7687 -45.7687 -45.7686 -45.7686
   -45.7685 -45.7685 -45.7685 -45.7685 -45.7685 -45.7685 -45.7684 -45.7684
   -45.7682 -45.7682 -45.7681 -45.7681 -45.7681 -45.7681 -45.7681 -45.7681
   -45.7680 -45.7680 -45.7678 -45.7678 -45.7678 -45.7678 -45.7677 -45.7677
   -45.7677 -45.7677 -45.7677 -45.7677 -45.7677 -45.7677 -45.7677 -45.7677
   -14.4782 -14.4780 -14.2786 -14.2786 -14.2786 -14.2786 -14.2784 -14.2784
   -14.2783 -14.2783 -14.2775 -14.2775 -14.2772 -14.2772 -14.0036 -14.0036
   -14.0034 -14.0034 -13.9977 -13.9977 -13.9976 -13.9976 -13.7591 -13.7591
   -13.7590 -13.7590 -13.7552 -13.7552 -13.7552 -13.7552 -13.7550 -13.7550
   -13.7550 -13.7550 -13.7389 -13.7385 -13.6667 -13.6667 -13.6666 -13.6666
   -13.6336 -13.6336 -13.6332 -13.6332 -13.6331 -13.6331 -13.6331 -13.6331
   -13.6328 -13.6328 -13.6328 -13.6328 -13.5683 -13.5683 -13.5683 -13.5683
   -13.5681 -13.5681 -13.5681 -13.5681 -13.5663 -13.5663 -13.5661 -13.5661
   -13.5109 -13.5109 -13.5107 -13.5107 -13.5095 -13.5095 -13.5094 -13.5094
   -13.5088 -13.5087 -13.5035 -13.5034 -13.4326 -13.4326 -13.4324 -13.4324
   -13.4307 -13.4307 -13.4307 -13.4307 -13.4304 -13.4304 -13.4304 -13.4304
   -13.4255 -13.4255 -13.4253 -13.4253 -13.4041 -13.4041 -13.4041 -13.4041
   -13.4039 -13.4039 -13.4039 -13.4039 -13.4007 -13.4007 -13.4005 -13.4005
   -13.3810 -13.3808 -13.3748 -13.3747  -6.2087  -6.2087  -6.1215  -6.1215
    -6.1213  -6.1213  -6.1212  -6.1212  -6.1211  -6.1211  -6.1202  -6.1202
    -6.1198  -6.1198  -5.7284  -5.7284  -5.7277  -5.7277  -5.7235  -5.7235
    -5.7226  -5.7226  -5.6586  -5.6496  -5.5924  -5.5924  -5.5882  -5.5882
    -5.5877  -5.5877  -5.5874  -5.5874  -5.5832  -5.5832  -5.5829  -5.5829
    -5.2103  -5.2103  -5.2085  -5.2085  -5.2082  -5.2082  -5.2081  -5.2081
    -5.2079  -5.2079  -5.2079  -5.2079  -5.2079  -5.2079  -5.2076  -5.2076
    -5.1271  -5.1271  -5.1266  -5.1266  -5.1251  -5.1251  -5.1249  -5.1249
    -5.1245  -5.1245  -5.1233  -5.1233  -5.1098  -5.1092  -5.1077  -5.1071
    -5.0536  -5.0536  -5.0528  -5.0528  -5.0513  -5.0513  -5.0501  -5.0501
    -5.0455  -5.0455  -5.0384  -5.0384  -4.9905  -4.9905  -4.9904  -4.9904
    -4.9904  -4.9904  -4.9873  -4.9873  -4.9872  -4.9872  -4.9872  -4.9872
    -4.7628  -4.7628  -4.7416  -4.7416  -4.7396  -4.7396  -4.7371  -4.7371
    -4.7363  -4.7363  -4.7343  -4.7343  -4.7343  -4.7343  -4.7335  -4.7335
    -4.7307  -4.7307  -4.7274  -4.7274  -4.7251  -4.7251  -4.6568  -4.6568
    -4.6550  -4.6550  -4.6522  -4.6522  -4.6519  -4.6519  -4.6501  -4.6501
    -4.6498  -4.6498  -4.5777  -4.5777  -4.5767  -4.5767  -4.3837  -4.3837
    -4.3836  -4.3836  -4.3813  -4.3812  -4.3812  -4.3812  -4.3805  -4.3805
    -4.3805  -4.3805  -4.3723  -4.3723  -4.3715  -4.3715  -4.3688  -4.3682
    -4.3625  -4.3618  -4.3351  -4.3351  -4.3349  -4.3349  -4.3347  -4.3347
    -4.3346  -4.3346  -4.3317  -4.3317  -4.3316  -4.3316  -4.2068  -4.2065
    -4.0141  -4.0141  -4.0128  -4.0128  -4.0107  -4.0107  -4.0093  -4.0093
    -4.0077  -4.0077  -4.0056  -4.0056  -3.9268  -3.9268  -3.9212  -3.9212
    -3.8921  -3.8907  -3.8862  -3.8848  -3.7249  -3.7249  -3.7244  -3.7244
    -3.7237  -3.7237  -3.7231  -3.7231  -3.7220  -3.7220  -3.7213  -3.7213
    -3.6013  -3.6013  -3.6000  -3.6000  -3.5947  -3.5947  -3.5946  -3.5946
    -3.5935  -3.5935  -3.5934  -3.5934  -3.5252  -3.5252  -3.5247  -3.5247
    -3.5235  -3.5235  -3.5216  -3.5216  -3.5202  -3.5202  -3.5185  -3.5185
    -3.4751  -3.4751  -3.4750  -3.4750  -3.4481  -3.4481  -3.4465  -3.4465
    -3.4414  -3.4414  -3.4402  -3.4402  -3.4152  -3.4152  -3.4141  -3.4141
    -3.4131  -3.4131  -3.4125  -3.4125  -3.3263  -3.3236  -3.2467  -3.2467
    -3.2459  -3.2459  -3.2455  -3.2455  -3.2450  -3.2450  -3.2442  -3.2442
    -3.2437  -3.2437  -3.1805  -3.1805  -3.1803  -3.1803  -3.1803  -3.1803
    -3.1799  -3.1799  -3.1798  -3.1798  -3.1797  -3.1797  -3.0829  -3.0829
    -3.0798  -3.0798  -3.0788  -3.0788  -3.0764  -3.0764  -3.0753  -3.0753
    -3.0733  -3.0733  -2.9732  -2.9724  -2.9691  -2.9683  -2.9074  -2.9074
    -2.8479  -2.8479  -2.8443  -2.8443  -2.8397  -2.8397  -2.8383  -2.8383
    -2.8333  -2.8333  -2.8314  -2.8314  -2.7963  -2.7963  -2.7963  -2.7963
    -2.7962  -2.7962  -2.7952  -2.7952  -2.7951  -2.7951  -2.7951  -2.7951
    -2.7823  -2.7453  -2.6718  -2.6718  -2.6717  -2.6717  -2.6153  -2.6153
    -2.6140  -2.6140  -2.6134  -2.6134  -2.6129  -2.6129  -2.6112  -2.6112
    -2.6100  -2.6100  -2.5573  -2.5572  -2.5556  -2.5555  -2.4653  -2.4582
    -2.4476  -2.4476  -2.4475  -2.4475  -2.4448  -2.4448  -2.4341  -2.4341
    -2.4339  -2.4339  -2.4317  -2.4317  -2.3865  -2.3865  -2.3855  -2.3854
    -2.3852  -2.3852  -2.3841  -2.3841  -2.3832  -2.3832  -2.3829  -2.3829
    -2.3076  -2.3076  -2.3061  -2.3061  -2.3028  -2.3028  -2.3005  -2.3005
    -2.2989  -2.2989  -2.2967  -2.2967  -2.2961  -2.2961  -2.2946  -2.2946
    -2.2844  -2.2836  -2.2793  -2.2782  -2.2313  -2.2313  -2.2295  -2.2295
    -2.2289  -2.2289  -2.2259  -2.2258  -2.2233  -2.2232  -2.2227  -2.2227
    -2.1844  -2.1844  -2.1832  -2.1832  -2.1804  -2.1804  -2.1779  -2.1779
    -2.1089  -2.1089  -2.1081  -2.1081  -2.1077  -2.1077  -2.1036  -2.1036
    -2.1024  -2.1024  -2.1018  -2.1018  -1.9549  -1.9549  -1.9524  -1.9524
    -1.9485  -1.9485  -1.9440  -1.9440  -1.8595  -1.8595  -1.8594  -1.8594
    -1.8575  -1.8575  -1.8575  -1.8575  -1.8574  -1.8574  -1.8554  -1.8554
    -1.8365  -1.8362  -1.8340  -1.8336  -0.5648  -0.5640  -0.5575  -0.5567
    -0.5550  -0.5550  -0.5440  -0.5440  -0.5439  -0.5439  -0.5437  -0.5437
    -0.5423  -0.5423  -0.5385  -0.5385  -0.5365  -0.5365  -0.5347  -0.5347
    -0.4981  -0.4980  -0.4952  -0.4952  -0.4924  -0.4924  -0.4886  -0.4886
    -0.4858  -0.4858  -0.4857  -0.4857  -0.4414  -0.4414  -0.4393  -0.4393
    -0.4383  -0.4383  -0.4372  -0.4372  -0.4357  -0.4357  -0.4353  -0.4353
    -0.4351  -0.4351  -0.4333  -0.4332  -0.4306  -0.4306  -0.4281  -0.4281
    -0.3324  -0.3324  -0.3312  -0.3312  -0.3311  -0.3311  -0.3299  -0.3299
    -0.3288  -0.3288  -0.3274  -0.3274  -0.1900  -0.1900  -0.1895  -0.1895
    -0.1601  -0.1594  -0.1561  -0.1559

 ------ SPIN DOWN ----------


          k = 0.0000 0.0000 0.0000 (729891 PWs)   bands (ev):

   -71.1445 -71.1444 -71.1444 -71.1444 -71.1444 -71.1444 -71.1444 -71.1444
   -71.1444 -71.1444 -71.1444 -71.1444 -71.1444 -71.1444 -71.1444 -71.1444
   -71.1443 -71.1443 -71.1443 -71.1443 -71.1443 -71.1443 -71.1443 -71.1443
   -71.1443 -71.1443 -71.1443 -71.1443 -71.1443 -71.1443 -71.1442 -71.1442
   -71.1442 -71.1442 -71.1442 -71.1442 -42.5178 -42.5178 -42.5176 -42.5176
   -42.5176 -42.5176 -42.5176 -42.5175 -42.5175 -42.5175 -42.5175 -42.5175
   -42.5175 -42.5175 -42.5174 -42.5173 -42.5173 -42.5173 -42.5171 -42.5171
   -42.5171 -42.5170 -42.5169 -42.5169 -42.5169 -42.5168 -42.5168 -42.5168
   -42.5168 -42.5168 -42.5168 -42.5168 -42.5168 -42.5168 -42.5166 -42.5166
   -42.4901 -42.4901 -42.4900 -42.4900 -42.4899 -42.4899 -42.4899 -42.4899
   -42.4899 -42.4899 -42.4899 -42.4899 -42.4899 -42.4899 -42.4899 -42.4899
   -42.4898 -42.4897 -42.4897 -42.4897 -42.4892 -42.4892 -42.4892 -42.4892
   -42.4892 -42.4892 -42.4892 -42.4892 -42.4892 -42.4891 -42.4891 -42.4891
   -42.4882 -42.4882 -42.4882 -42.4882 -42.4882 -42.4882 -42.4881 -42.4881
   -42.4873 -42.4872 -42.4872 -42.4872 -42.4872 -42.4872 -42.4872 -42.4872
   -42.4871 -42.4871 -42.4871 -42.4871 -42.4867 -42.4867 -42.4866 -42.4866
   -42.4865 -42.4865 -42.4865 -42.4865 -42.4864 -42.4864 -42.4864 -42.4864
   -42.4864 -42.4864 -42.4864 -42.4864 -42.4863 -42.4863 -42.4863 -42.4863
   -14.5016 -14.5013 -14.3082 -14.3082 -14.3082 -14.3082 -14.3079 -14.3079
   -14.3079 -14.3079 -14.3072 -14.3072 -14.3069 -14.3069 -14.0433 -14.0433
   -14.0431 -14.0431 -14.0378 -14.0378 -14.0377 -14.0377 -13.8123 -13.8123
   -13.8121 -13.8121 -13.8087 -13.8087 -13.8086 -13.8086 -13.8085 -13.8085
   -13.8084 -13.8084 -13.8046 -13.8042 -13.7307 -13.7307 -13.7305 -13.7305
   -13.6993 -13.6993 -13.6990 -13.6990 -13.6988 -13.6988 -13.6988 -13.6988
   -13.6984 -13.6984 -13.6984 -13.6984 -13.6333 -13.6333 -13.6333 -13.6333
   -13.6332 -13.6332 -13.6331 -13.6331 -13.6315 -13.6315 -13.6313 -13.6313
   -13.5761 -13.5761 -13.5759 -13.5759 -13.5750 -13.5750 -13.5748 -13.5748
   -13.5737 -13.5736 -13.5687 -13.5686 -13.4968 -13.4968 -13.4965 -13.4965
   -13.4951 -13.4951 -13.4950 -13.4950 -13.4948 -13.4948 -13.4948 -13.4948
   -13.4880 -13.4880 -13.4878 -13.4878 -13.4664 -13.4664 -13.4664 -13.4664
   -13.4662 -13.4662 -13.4661 -13.4661 -13.4632 -13.4632 -13.4630 -13.4630
   -13.4448 -13.4447 -13.4390 -13.4389  -5.9311  -5.9311  -5.8778  -5.8778
    -5.8776  -5.8776  -5.8775  -5.8775  -5.8773  -5.8773  -5.8768  -5.8768
    -5.8763  -5.8763  -5.4941  -5.4941  -5.4934  -5.4934  -5.4894  -5.4894
    -5.4883  -5.4883  -5.4205  -5.4097  -5.3543  -5.3543  -5.3500  -5.3500
    -5.3497  -5.3497  -5.3493  -5.3493  -5.3446  -5.3446  -5.3443  -5.3443
    -5.1505  -5.1505  -5.1505  -5.1504  -5.1504  -5.1504  -5.1503  -5.1503
    -5.1503  -5.1503  -5.1501  -5.1501  -4.9584  -4.9576  -4.9551  -4.9543
    -4.9401  -4.9401  -4.9375  -4.9375  -4.9237  -4.9237  -4.9229  -4.9229
    -4.9224  -4.9224  -4.9223  -4.9223  -4.9220  -4.9220  -4.9217  -4.9217
    -4.9205  -4.9205  -4.9201  -4.9201  -4.9197  -4.9197  -4.9194  -4.9194
    -4.7702  -4.7701  -4.7614  -4.7613  -4.7337  -4.7337  -4.7241  -4.7241
    -4.7240  -4.7240  -4.7240  -4.7240  -4.7197  -4.7197  -4.7197  -4.7197
    -4.7196  -4.7196  -4.4792  -4.4792  -4.4773  -4.4773  -4.4765  -4.4765
    -4.4762  -4.4762  -4.4735  -4.4735  -4.4727  -4.4727  -4.3634  -4.3634
    -4.3621  -4.3621  -4.3574  -4.3574  -4.3538  -4.3538  -4.3500  -4.3500
    -4.3476  -4.3476  -4.2607  -4.2607  -4.2586  -4.2586  -4.2579  -4.2579
    -4.2577  -4.2577  -4.2550  -4.2550  -4.2544  -4.2544  -3.9503  -3.9490
    -3.8996  -3.8996  -3.8995  -3.8995  -3.8985  -3.8985  -3.8984  -3.8984
    -3.8956  -3.8956  -3.8956  -3.8956  -3.8940  -3.8940  -3.8940  -3.8940
    -3.8919  -3.8919  -3.8916  -3.8916  -3.8898  -3.8898  -3.8874  -3.8874
    -3.7972  -3.7959  -3.7897  -3.7884  -3.7761  -3.7761  -3.7760  -3.7760
    -3.6752  -3.6752  -3.6684  -3.6684  -3.5551  -3.5551  -3.5535  -3.5535
    -3.5512  -3.5512  -3.5496  -3.5496  -3.5479  -3.5479  -3.5474  -3.5474
    -3.4306  -3.4291  -3.4218  -3.4202  -3.3852  -3.3852  -3.3825  -3.3825
    -3.3804  -3.3804  -3.3797  -3.3797  -3.3749  -3.3749  -3.3721  -3.3721
    -3.3124  -3.3080  -3.2693  -3.2693  -3.2691  -3.2691  -3.2457  -3.2457
    -3.2453  -3.2453  -3.2424  -3.2424  -3.2420  -3.2420  -3.2417  -3.2417
    -3.2392  -3.2392  -3.1837  -3.1837  -3.1834  -3.1834  -3.1831  -3.1831
    -3.1829  -3.1829  -3.1824  -3.1824  -3.1822  -3.1822  -3.1429  -3.1429
    -3.1408  -3.1408  -3.1349  -3.1349  -3.1329  -3.1329  -3.0739  -3.0739
    -3.0707  -3.0707  -3.0698  -3.0698  -3.0692  -3.0692  -3.0650  -3.0650
    -3.0643  -3.0643  -2.8857  -2.8857  -2.8853  -2.8853  -2.8833  -2.8833
    -2.8808  -2.8808  -2.8784  -2.8784  -2.8760  -2.8760  -2.8266  -2.7920
    -2.7804  -2.7804  -2.7792  -2.7792  -2.7766  -2.7766  -2.7755  -2.7755
    -2.7133  -2.7133  -2.7089  -2.7089  -2.6175  -2.6175  -2.6165  -2.6165
    -2.6144  -2.6144  -2.6143  -2.6143  -2.6137  -2.6137  -2.6122  -2.6122
    -2.4844  -2.4828  -2.4778  -2.4758  -2.4406  -2.4406  -2.4404  -2.4404
    -2.4385  -2.4385  -2.4260  -2.4260  -2.4259  -2.4259  -2.4243  -2.4243
    -2.4193  -2.4193  -2.4160  -2.4160  -2.4131  -2.4131  -2.4115  -2.4115
    -2.2217  -2.2217  -2.2210  -2.2210  -2.2208  -2.2208  -2.2201  -2.2201
    -2.2200  -2.2200  -2.2199  -2.2199  -2.0207  -2.0203  -2.0195  -2.0192
     0.3282   0.3282   0.3290   0.3290   0.3291   0.3291   0.3293   0.3293
     0.3299   0.3299   0.3305   0.3305   0.3307   0.3307   0.3313   0.3313
     0.3342   0.3342   0.3377   0.3377   0.3599   0.3599   0.3601   0.3601
     0.3610   0.3610   0.3675   0.3675   0.3678   0.3678   0.3685   0.3685
     0.4162   0.4162   0.4179   0.4179   0.4451   0.4451   0.4804   0.4804
     0.4837   0.4837   0.5164   0.5313   0.5529   0.5529   0.5540   0.5540
     0.5540   0.5540   0.5542   0.5542   0.5545   0.5545   0.5567   0.5567
     0.5569   0.5569   0.5585   0.5585   0.6760   0.6760   0.6761   0.6762
     0.6778   0.6778   0.6800   0.6800   0.6801   0.6801   0.6817   0.6817
     0.6996   0.6996   0.7008   0.7008   0.7010   0.7010   0.7012   0.7012
     0.7015   0.7015   0.7023   0.7023   0.7370   0.7370   0.7375   0.7381
     0.7389   0.7389   0.7416   0.7423   0.7427   0.7427   0.7464   0.7464
     0.7638   0.7638   0.7661   0.7661   0.7662   0.7662   0.7665   0.7665
     0.7688   0.7688   0.7691   0.7691   0.9654   0.9654   0.9678   0.9678
     0.9698   0.9701   0.9701   0.9706   0.9730   0.9738   0.9796   0.9796
     0.9812   0.9812   0.9852   0.9852   0.9946   0.9946   0.9993   0.9993
     0.9994   0.9994   1.0047   1.0047   1.0055   1.0055   1.0067   1.0067
     1.0069   1.0069   1.0221   1.0221   1.0775   1.0775   1.0785   1.0785
     1.0801   1.0801   1.0803   1.0803   1.0812   1.0812   1.0818   1.0818
     1.1126   1.1126   1.1157   1.1157   1.1232   1.1232   1.1254   1.1254
     1.1341   1.1341   1.1351   1.1351   1.1352   1.1352   1.1412   1.1413
     1.1422   1.1422   1.1423   1.1423   1.2133   1.2133   1.2138   1.2138
     1.2608   1.2618   1.2637   1.2639

     the Fermi energy is    -1.2072 ev

!    total energy              =   -9215.21715714 Ry
     estimated scf accuracy    <       0.00000002 Ry
     smearing contrib. (-TS)   =      -0.00000057 Ry
     internal energy E=F+TS    =   -9215.21715657 Ry

     The total energy is F=E-TS. E is the sum of the following terms:
     one-electron contribution =  -48455.84135805 Ry
     hartree contribution      =   24302.23027160 Ry
     xc contribution           =   -1811.47789806 Ry
     ewald contribution        =   16757.18574672 Ry
     DFT-D3 Dispersion         =      -7.31391878 Ry

     total magnetization       =   108.00 Bohr mag/cell
     absolute magnetization    =   134.06 Bohr mag/cell

     convergence has been achieved in  20 iterations

     Forces acting on atoms (cartesian axes, Ry/au):

     atom    1 type  2   force =     0.00896865    0.00002314    0.02015039
     atom    2 type  2   force =    -0.00404825    0.00751221    0.01916109
     atom    3 type  2   force =    -0.00455569   -0.00743376    0.01889065
     atom    4 type  1   force =     0.00026729   -0.00016503    0.00011724
     atom    5 type  1   force =    -0.00072583    0.00041817    0.00011725
     atom    6 type  2   force =     0.00416099    0.00767136   -0.01829324
     atom    7 type  2   force =    -0.00852085   -0.00025077   -0.01855422
     atom    8 type  2   force =     0.00446450   -0.00778689   -0.01954729
     atom    9 type  4   force =     0.00895834    0.00002325    0.01954051
     atom   10 type  4   force =    -0.00404865    0.00752208    0.01856219
     atom   11 type  4   force =    -0.00455607   -0.00744358    0.01829242
     atom   12 type  3   force =     0.00026339   -0.00016049   -0.00011738
     atom   13 type  3   force =    -0.00071530    0.00041209   -0.00011709
     atom   14 type  4   force =     0.00416046    0.00766230   -0.01889106
     atom   15 type  4   force =    -0.00853122   -0.00025074   -0.01916127
     atom   16 type  4   force =     0.00446403   -0.00777749   -0.02015081
     atom   17 type  2   force =     0.00896835    0.00002317    0.02014976
     atom   18 type  2   force =    -0.00404778    0.00751228    0.01916103
     atom   19 type  2   force =    -0.00455538   -0.00743402    0.01889094
     atom   20 type  1   force =     0.00025396   -0.00014210    0.00011737
     atom   21 type  1   force =    -0.00073031    0.00043354    0.00011752
     atom   22 type  2   force =     0.00416061    0.00767145   -0.01829316
     atom   23 type  2   force =    -0.00852062   -0.00025097   -0.01855392
     atom   24 type  2   force =     0.00446389   -0.00778722   -0.01954726
     atom   25 type  4   force =     0.00895853    0.00002319    0.01954068
     atom   26 type  4   force =    -0.00404864    0.00752206    0.01856226
     atom   27 type  4   force =    -0.00455609   -0.00744364    0.01829262
     atom   28 type  3   force =     0.00027554   -0.00015198   -0.00011732
     atom   29 type  3   force =    -0.00072675    0.00043149   -0.00011728
     atom   30 type  4   force =     0.00416055    0.00766208   -0.01889093
     atom   31 type  4   force =    -0.00853119   -0.00025082   -0.01916142
     atom   32 type  4   force =     0.00446353   -0.00777766   -0.02015060
     atom   33 type  2   force =     0.00896830    0.00002330    0.02014996
     atom   34 type  2   force =    -0.00404752    0.00751258    0.01916133
     atom   35 type  2   force =    -0.00455527   -0.00743390    0.01889050
     atom   36 type  1   force =     0.00026105   -0.00015442    0.00011757
     atom   37 type  1   force =    -0.00071726    0.00041187    0.00011764
     atom   38 type  2   force =     0.00416051    0.00767167   -0.01829360
     atom   39 type  2   force =    -0.00852061   -0.00025085   -0.01855362
     atom   40 type  2   force =     0.00446416   -0.00778698   -0.01954708
     atom   41 type  4   force =     0.00895837    0.00002326    0.01954046
     atom   42 type  4   force =    -0.00404814    0.00752248    0.01856262
     atom   43 type  4   force =    -0.00455576   -0.00744381    0.01829239
     atom   44 type  3   force =     0.00026484   -0.00015409   -0.00011740
     atom   45 type  3   force =    -0.00071535    0.00041070   -0.00011745
     atom   46 type  4   force =     0.00416028    0.00766225   -0.01889102
     atom   47 type  4   force =    -0.00853109   -0.00025071   -0.01916113
     atom   48 type  4   force =     0.00446361   -0.00777779   -0.02015066
     atom   49 type  2   force =     0.00896850    0.00002352    0.02015011
     atom   50 type  2   force =    -0.00404814    0.00751224    0.01916112
     atom   51 type  2   force =    -0.00455564   -0.00743381    0.01889071
     atom   52 type  1   force =     0.00025407   -0.00016553    0.00011728
     atom   53 type  1   force =    -0.00072933    0.00040618    0.00011742
     atom   54 type  2   force =     0.00416104    0.00767139   -0.01829338
     atom   55 type  2   force =    -0.00852080   -0.00025086   -0.01855421
     atom   56 type  2   force =     0.00446408   -0.00778707   -0.01954709
     atom   57 type  4   force =     0.00895848    0.00002315    0.01954100
     atom   58 type  4   force =    -0.00404879    0.00752202    0.01856230
     atom   59 type  4   force =    -0.00455620   -0.00744369    0.01829253
     atom   60 type  3   force =     0.00027538   -0.00015518   -0.00011727
     atom   61 type  3   force =    -0.00072108    0.00040860   -0.00011706
     atom   62 type  4   force =     0.00416067    0.00766202   -0.01889102
     atom   63 type  4   force =    -0.00853139   -0.00025078   -0.01916156
     atom   64 type  4   force =     0.00446364   -0.00777768   -0.02015046
     atom   65 type  2   force =     0.00896844    0.00002356    0.02015018
     atom   66 type  2   force =    -0.00404757    0.00751251    0.01916111
     atom   67 type  2   force =    -0.00455500   -0.00743400    0.01889058
     atom   68 type  1   force =     0.00026005   -0.00015391    0.00011727
     atom   69 type  1   force =    -0.00073799    0.00042390    0.00011737
     atom   70 type  2   force =     0.00416081    0.00767144   -0.01829359
     atom   71 type  2   force =    -0.00852055   -0.00025077   -0.01855353
     atom   72 type  2   force =     0.00446388   -0.00778725   -0.01954729
     atom   73 type  4   force =     0.00895838    0.00002354    0.01954064
     atom   74 type  4   force =    -0.00404866    0.00752218    0.01856251
     atom   75 type  4   force =    -0.00455565   -0.00744387    0.01829249
     atom   76 type  3   force =     0.00027362   -0.00013908   -0.00011746
     atom   77 type  3   force =    -0.00072128    0.00042146   -0.00011708
     atom   78 type  4   force =     0.00416074    0.00766202   -0.01889096
     atom   79 type  4   force =    -0.00853122   -0.00025040   -0.01916122
     atom   80 type  4   force =     0.00446348   -0.00777786   -0.02015071
     atom   81 type  2   force =     0.00896845    0.00002303    0.02015021
     atom   82 type  2   force =    -0.00404795    0.00751228    0.01916104
     atom   83 type  2   force =    -0.00455531   -0.00743380    0.01889042
     atom   84 type  1   force =     0.00024700   -0.00015437    0.00011736
     atom   85 type  1   force =    -0.00074255    0.00041243    0.00011755
     atom   86 type  2   force =     0.00416064    0.00767144   -0.01829328
     atom   87 type  2   force =    -0.00852062   -0.00025061   -0.01855382
     atom   88 type  2   force =     0.00446446   -0.00778688   -0.01954719
     atom   89 type  4   force =     0.00895827    0.00002334    0.01954044
     atom   90 type  4   force =    -0.00404850    0.00752217    0.01856230
     atom   91 type  4   force =    -0.00455562   -0.00744387    0.01829241
     atom   92 type  3   force =     0.00028615   -0.00015418   -0.00011753
     atom   93 type  3   force =    -0.00073272    0.00041422   -0.00011711
     atom   94 type  4   force =     0.00416020    0.00766235   -0.01889121
     atom   95 type  4   force =    -0.00853120   -0.00025053   -0.01916111
     atom   96 type  4   force =     0.00446360   -0.00777774   -0.02015082
     atom   97 type  2   force =     0.00896861    0.00002311    0.02015035
     atom   98 type  2   force =    -0.00404808    0.00751244    0.01916139
     atom   99 type  2   force =    -0.00455528   -0.00743396    0.01889042
     atom  100 type  1   force =     0.00026013   -0.00015400    0.00011714
     atom  101 type  1   force =    -0.00073150    0.00041989    0.00011738
     atom  102 type  2   force =     0.00416087    0.00767160   -0.01829358
     atom  103 type  2   force =    -0.00852073   -0.00025039   -0.01855387
     atom  104 type  2   force =     0.00446451   -0.00778699   -0.01954731
     atom  105 type  4   force =     0.00895845    0.00002364    0.01954083
     atom  106 type  4   force =    -0.00404871    0.00752217    0.01856271
     atom  107 type  4   force =    -0.00455585   -0.00744387    0.01829232
     atom  108 type  3   force =     0.00027343   -0.00016870   -0.00011744
     atom  109 type  3   force =    -0.00071943    0.00042296   -0.00011714
     atom  110 type  4   force =     0.00416083    0.00766202   -0.01889106
     atom  111 type  4   force =    -0.00853126   -0.00025039   -0.01916138
     atom  112 type  4   force =     0.00446373   -0.00777773   -0.02015070
     atom  113 type  2   force =     0.00896843    0.00002296    0.02015008
     atom  114 type  2   force =    -0.00404819    0.00751226    0.01916125
     atom  115 type  2   force =    -0.00455502   -0.00743407    0.01889065
     atom  116 type  1   force =     0.00026754   -0.00014267    0.00011728
     atom  117 type  1   force =    -0.00071846    0.00042529    0.00011734
     atom  118 type  2   force =     0.00416064    0.00767138   -0.01829314
     atom  119 type  2   force =    -0.00852068   -0.00025031   -0.01855393
     atom  120 type  2   force =     0.00446407   -0.00778715   -0.01954758
     atom  121 type  4   force =     0.00895832    0.00002333    0.01954048
     atom  122 type  4   force =    -0.00404859    0.00752216    0.01856228
     atom  123 type  4   force =    -0.00455559   -0.00744392    0.01829261
     atom  124 type  3   force =     0.00026305   -0.00014724   -0.00011745
     atom  125 type  3   force =    -0.00070785    0.00042919   -0.00011723
     atom  126 type  4   force =     0.00416033    0.00766221   -0.01889113
     atom  127 type  4   force =    -0.00853133   -0.00025056   -0.01916106
     atom  128 type  4   force =     0.00446362   -0.00777785   -0.02015108
     atom  129 type  2   force =     0.00896839    0.00002322    0.02014985
     atom  130 type  2   force =    -0.00404762    0.00751260    0.01916132
     atom  131 type  2   force =    -0.00455526   -0.00743410    0.01889077
     atom  132 type  1   force =     0.00027343   -0.00015423    0.00011736
     atom  133 type  1   force =    -0.00072695    0.00041611    0.00011728
     atom  134 type  2   force =     0.00416039    0.00767180   -0.01829345
     atom  135 type  2   force =    -0.00852067   -0.00025089   -0.01855383
     atom  136 type  2   force =     0.00446385   -0.00778725   -0.01954728
     atom  137 type  4   force =     0.00895841    0.00002322    0.01954081
     atom  138 type  4   force =    -0.00404845    0.00752213    0.01856239
     atom  139 type  4   force =    -0.00455601   -0.00744363    0.01829252
     atom  140 type  3   force =     0.00026127   -0.00015419   -0.00011760
     atom  141 type  3   force =    -0.00070785    0.00041512   -0.00011712
     atom  142 type  4   force =     0.00416045    0.00766211   -0.01889105
     atom  143 type  4   force =    -0.00853124   -0.00025079   -0.01916131
     atom  144 type  4   force =     0.00446349   -0.00777758   -0.02015058

     Total force =     0.218426     Total SCF correction =     0.000209


     Computing stress (Cartesian axis) and pressure

          total   stress  (Ry/bohr**3)                   (kbar)     P=      -14.80
  -0.00011343  -0.00000050  -0.00000019          -16.69       -0.07       -0.03
  -0.00000050  -0.00011400  -0.00000033           -0.07      -16.77       -0.05
  -0.00000019  -0.00000033  -0.00007441           -0.03       -0.05      -10.95


     BFGS Geometry Optimization
     Energy error            =      1.4E-01 Ry
     Gradient error          =      2.0E-02 Ry/Bohr
     Cell gradient error     =      1.7E+01 kbar

     number of scf cycles    =   1
     number of bfgs steps    =   0

     enthalpy           new  =   -9215.2171571381 Ry

     new trust radius        =       0.1675983192 bohr
     new conv_thr            =       0.0000001000 Ry

     new unit-cell volume =  85963.71238 a.u.^3 ( 12738.50792 Ang^3 )
     density =      2.03199 g/cm^3

CELL_PARAMETERS (bohr)
  39.393920727  -0.000492659   0.000000000
 -19.697387019  34.115891989   0.000000000
   0.000000000   0.000000000  63.963520780

ATOMIC_POSITIONS (crystal)
I1               0.3042524986        0.1479697564        0.3129931294
I1               0.1852827736        0.2668893609        0.3131733828
I1               0.0667508644        0.0293455221        0.3132935948
Cr1              0.0742065640        0.2591263063        0.3590707828
Cr1              0.2964797186        0.0368535826        0.3590707831
I1               0.3039879668        0.2665827425        0.4048536551
I1               0.0664441900        0.1480505405        0.4049740150
I1               0.1853634586        0.0290805907        0.4051542094
I2               0.0820300191        0.1479697597        0.5948456847
I2               0.2963940175        0.2668896492        0.5950261096
I2               0.1778618213        0.0293452352        0.5951463321
Cr2              0.1853176416        0.2591264391        0.6409292049
Cr2              0.0742576662        0.0368534047        0.6409292094
I2               0.0817656012        0.2665824776        0.6867063989
I2               0.1775550379        0.1480505413        0.6868266144
I2               0.2964746942        0.0290808655        0.6870068640
I1               0.3042524912        0.4813030972        0.3129931195
I1               0.1852827865        0.6002226929        0.3131733819
I1               0.0667508685        0.3626788446        0.3132935993
Cr1              0.0742065619        0.5924603067        0.3590707849
Cr1              0.2964798297        0.3701873616        0.3590707873
I1               0.3039879586        0.5999160752        0.4048536564
I1               0.0664441927        0.4813838744        0.4049740197
I1               0.1853634384        0.3624139209        0.4051542098
I2               0.0820300229        0.4813030978        0.5948456873
I2               0.2963940175        0.6002229787        0.5950261108
I2               0.1778618201        0.3626785634        0.5951463352
Cr2              0.1853180737        0.5924600179        0.6409292058
Cr2              0.0742576599        0.3701873019        0.6409292065
I2               0.0817656001        0.5999158014        0.6867064008
I2               0.1775550374        0.4813838789        0.6868266120
I2               0.2964746791        0.3624142004        0.6870068674
I1               0.3042524919        0.8146364311        0.3129931226
I1               0.1852827975        0.9335560417        0.3131733865
I1               0.0667508731        0.6960121880        0.3132935923
Cr1              0.0742065610        0.9257932765        0.3590707881
Cr1              0.2964798435        0.7035200583        0.3590707891
I1               0.3039879593        0.9332494117        0.4048536495
I1               0.0664441950        0.8147172080        0.4049740244
I1               0.1853634487        0.6957472581        0.4051542127
I2               0.0820300199        0.8146364298        0.5948456838
I2               0.2963940363        0.9335563310        0.5950261163
I2               0.1778618258        0.6960118984        0.5951463316
Cr2              0.1853177719        0.9257932863        0.6409292045
Cr2              0.0742576447        0.7035200242        0.6409292037
I2               0.0817655959        0.9332491363        0.6867063995
I2               0.1775550416        0.8147172121        0.6868266166
I2               0.2964746791        0.6957475268        0.6870068664
I1               0.6375858303        0.1479697676        0.3129931250
I1               0.5186161066        0.2668893617        0.3131733832
I1               0.4000841949        0.0293455206        0.3132935957
Cr1              0.4075395522        0.2591262919        0.3590707836
Cr1              0.6298127847        0.0368532321        0.3590707857
I1               0.6373213086        0.2665827434        0.4048536528
I1               0.3997775300        0.1480505377        0.4049740151
I1               0.5186967754        0.0290805856        0.4051542126
I2               0.4153633512        0.1479697568        0.5948456922
I2               0.6297273430        0.2668896474        0.5950261113
I2               0.5111951465        0.0293452320        0.5951463338
Cr2              0.5186513529        0.2591265944        0.6409292066
Cr2              0.4075908089        0.0368533029        0.6409292099
I2               0.4150989322        0.2665824695        0.6867063994
I2               0.5108883728        0.1480505399        0.6868266099
I2               0.6298080114        0.0290808599        0.6870068696
I1               0.6375858293        0.4813031086        0.3129931261
I1               0.5186161250        0.6002226995        0.3131733831
I1               0.4000842084        0.3626788452        0.3132935936
Cr1              0.4075398732        0.5924599615        0.3590707834
Cr1              0.6298128244        0.3701870799        0.3590707849
I1               0.6373213036        0.5999160748        0.4048536497
I1               0.3997775375        0.4813838804        0.4049740257
I1               0.5186967677        0.3624139200        0.4051542095
I2               0.4153633543        0.4813031081        0.5948456866
I2               0.6297273489        0.6002229824        0.5950261147
I2               0.5111951577        0.3626785565        0.5951463332
Cr2              0.5186515437        0.5924603950        0.6409292036
Cr2              0.4075909919        0.3701870088        0.6409292096
I2               0.4150989342        0.5999157997        0.6867064005
I2               0.5108883827        0.4813838911        0.6868266152
I2               0.6298080047        0.3624141946        0.6870068655
I1               0.6375858217        0.8146364232        0.3129931265
I1               0.5186161123        0.9335560330        0.3131733820
I1               0.4000842034        0.6960121909        0.3132935912
Cr1              0.4075395363        0.9257932780        0.3590707848
Cr1              0.6298125416        0.7035200748        0.3590707877
I1               0.6373212994        0.9332494050        0.4048536545
I1               0.3997775381        0.8147172150        0.4049740212
I1               0.5186967878        0.6957472611        0.4051542109
I2               0.4153633485        0.8146364321        0.5948456835
I2               0.6297273526        0.9335563218        0.5950261113
I2               0.5111951585        0.6960118965        0.5951463319
Cr2              0.5186516401        0.9257932836        0.6409292025
Cr2              0.4075905963        0.7035201269        0.6409292091
I2               0.4150989252        0.9332491393        0.6867063964
I2               0.5108883813        0.8147172173        0.6868266169
I2               0.6298080097        0.6957475282        0.6870068638
I1               0.9709191669        0.1479697555        0.3129931288
I1               0.8519494511        0.2668893676        0.3131733874
I1               0.7334175321        0.0293455164        0.3132935911
Cr1              0.7408732039        0.2591266288        0.3590707814
Cr1              0.9631462603        0.0368536329        0.3590707851
I1               0.9706546374        0.2665827497        0.4048536498
I1               0.7331108685        0.1480505514        0.4049740204
I1               0.8520301274        0.0290805879        0.4051542091
I2               0.7486966877        0.1479697710        0.5948456896
I2               0.9630606875        0.2668896520        0.5950261177
I2               0.8445284828        0.0293452267        0.5951463304
Cr2              0.8519844357        0.2591261991        0.6409292039
Cr2              0.7409243904        0.0368537224        0.6409292086
I2               0.7484322764        0.2665824695        0.6867063989
[...]
   -12.9191 -12.9190 -12.9188 -12.9187  -5.7010  -5.7010  -5.7010  -5.7010
    -5.7009  -5.7008  -5.7007  -5.7006  -5.7005  -5.7005  -5.7004  -5.7004
    -5.5019  -5.5019  -5.2325  -5.2222  -5.1578  -5.1578  -5.1574  -5.1574
    -5.1570  -5.1570  -5.1564  -5.1564  -5.0477  -5.0477  -5.0473  -5.0473
    -5.0470  -5.0470  -5.0433  -5.0433  -5.0426  -5.0426  -5.0423  -5.0423
    -5.0078  -5.0077  -5.0073  -5.0073  -5.0073  -5.0073  -5.0072  -5.0072
    -5.0069  -5.0069  -5.0068  -5.0068  -4.7794  -4.7794  -4.7774  -4.7774
    -4.7123  -4.7123  -4.7121  -4.7121  -4.7118  -4.7118  -4.7106  -4.7101
    -4.7101  -4.7101  -4.7099  -4.7099  -4.7098  -4.7098  -4.7083  -4.7079
    -4.6583  -4.6583  -4.6580  -4.6580  -4.6571  -4.6571  -4.6567  -4.6567
    -4.6203  -4.6202  -4.6180  -4.6180  -4.5368  -4.5368  -4.5367  -4.5367
    -4.5363  -4.5363  -4.5317  -4.5317  -4.5316  -4.5316  -4.5313  -4.5313
    -4.2596  -4.2596  -4.2028  -4.2028  -4.2020  -4.2020  -4.0568  -4.0555
    -3.9419  -3.9419  -3.9414  -3.9414  -3.9413  -3.9413  -3.9378  -3.9378
    -3.9377  -3.9377  -3.9374  -3.9374  -3.9218  -3.9218  -3.9203  -3.9203
    -3.9159  -3.9159  -3.9142  -3.9142  -3.8007  -3.8007  -3.8005  -3.8005
    -3.8003  -3.8003  -3.7964  -3.7964  -3.7963  -3.7963  -3.7959  -3.7959
    -3.5761  -3.5761  -3.5698  -3.5698  -3.4418  -3.4418  -3.4413  -3.4413
    -3.4404  -3.4404  -3.4379  -3.4379  -3.4375  -3.4375  -3.4371  -3.4370
    -3.3524  -3.3524  -3.3523  -3.3523  -3.3521  -3.3521  -3.3521  -3.3521
    -3.3518  -3.3518  -3.3517  -3.3517  -3.2889  -3.2863  -3.1916  -3.1910
    -3.1883  -3.1877  -3.1583  -3.1582  -3.1577  -3.1577  -3.1574  -3.1574
    -3.1538  -3.1538  -3.1535  -3.1534  -3.1531  -3.1531  -3.1503  -3.1503
    -3.1503  -3.1503  -3.0666  -3.0662  -3.0598  -3.0594  -3.0250  -3.0249
    -3.0233  -3.0233  -3.0226  -3.0225  -3.0186  -3.0186  -3.0179  -3.0178
    -3.0170  -3.0170  -2.7931  -2.7931  -2.7928  -2.7928  -2.7923  -2.7923
    -2.7922  -2.7921  -2.7918  -2.7918  -2.7918  -2.7918  -2.6727  -2.6727
    -2.6712  -2.6712  -2.6663  -2.6663  -2.6633  -2.6633  -2.6357  -2.6357
    -2.6357  -2.6357  -2.6356  -2.6356  -2.6340  -2.6340  -2.6337  -2.6337
    -2.6337  -2.6337  -2.6323  -2.6323  -2.6318  -2.6318  -2.6309  -2.6308
    -2.6290  -2.6290  -2.6279  -2.6279  -2.6265  -2.6265  -2.4903  -2.4903
    -2.4902  -2.4902  -2.3450  -2.3060  -2.2345  -2.2345  -2.2332  -2.2332
    -2.2328  -2.2328  -2.2297  -2.2297  -2.2292  -2.2292  -2.2273  -2.2273
    -2.1666  -2.1666  -2.1613  -2.1613  -2.0578  -2.0578  -2.0574  -2.0574
    -2.0567  -2.0567  -2.0561  -2.0561  -1.8883  -1.8883  -1.8873  -1.8873
    -1.8870  -1.8870  -1.8853  -1.8853  -1.8850  -1.8850  -1.8846  -1.8846
    -1.8595  -1.8595  -1.8593  -1.8593  -1.8589  -1.8589  -1.8395  -1.8395
    -1.8393  -1.8393  -1.8391  -1.8391  -1.7084  -1.7081  -1.7043  -1.7038
    -1.6470  -1.6470  -1.6454  -1.6454  -1.6421  -1.6421  -1.6407  -1.6407
    -1.3750  -1.3750  -1.3749  -1.3749  -1.3749  -1.3748  -1.3739  -1.3738
    -1.3738  -1.3738  -1.3736  -1.3735  -0.9151  -0.9148  -0.9146  -0.9143
     0.8009   0.8009   0.8021   0.8021   0.8069   0.8069   0.8097   0.8097
     0.8460   0.8460   0.8468   0.8468   0.8472   0.8472   0.8475   0.8475
     0.8479   0.8479   0.8484   0.8484   0.8681   0.8681   0.8716   0.8716
     0.9276   0.9276   0.9281   0.9282   0.9283   0.9283   0.9372   0.9372
     0.9373   0.9373   0.9381   0.9381   0.9731   0.9731   0.9732   0.9732
     1.0637   1.0892   1.1262   1.1262   1.2401   1.2401   1.2406   1.2406
     1.2407   1.2407   1.2455   1.2456   1.2456   1.2456   1.2461   1.2461
     1.3270   1.3270   1.3271   1.3271   1.3295   1.3296   1.3306   1.3306
     1.3309   1.3309   1.3377   1.3378   1.3381   1.3381   1.3388   1.3388
     1.3819   1.3819   1.3834   1.3834   1.3836   1.3836   1.3847   1.3847
     1.3848   1.3848   1.3860   1.3860   1.4883   1.4886   1.4913   1.4917
     1.5273   1.5273   1.5289   1.5289   1.5344   1.5344   1.5365   1.5365
     1.5399   1.5399   1.5400   1.5400   1.5404   1.5404   1.5441   1.5441
     1.5445   1.5445   1.5449   1.5449   1.6667   1.6667   1.6685   1.6685
     1.6692   1.6692   1.6773   1.6773   1.6780   1.6780   1.6817   1.6818
     1.7685   1.7689   1.7721   1.7724   1.7774   1.7774   1.7808   1.7808
     1.7815   1.7815   1.7924   1.7924   1.7931   1.7931   1.7946   1.7946
     1.8857   1.8857   1.9065   1.9065   1.9916   1.9916   1.9961   1.9961
     1.9995   1.9995   2.0027   2.0027   2.0028   2.0028   2.0057   2.0057
     2.0071   2.0071   2.0072   2.0072   2.0082   2.0082   2.0104   2.0104
     2.0568   2.0568   2.0570   2.0570   2.0571   2.0571   2.0622   2.0622
     2.0626   2.0626   2.0627   2.0627   2.1046   2.1046   2.1051   2.1051
     2.1868   2.1875   2.1887   2.1887

     the Fermi energy is    -0.2746 ev

!    total energy              =   -9215.83858514 Ry
     estimated scf accuracy    <          7.2E-10 Ry
     smearing contrib. (-TS)   =      -0.00000090 Ry
     internal energy E=F+TS    =   -9215.83858424 Ry

     The total energy is F=E-TS. E is the sum of the following terms:
     one-electron contribution =  -54166.88587507 Ry
     hartree contribution      =   27187.25208298 Ry
     xc contribution           =   -1818.13990188 Ry
     ewald contribution        =   19590.61234213 Ry
     DFT-D3 Dispersion         =      -8.67723240 Ry

     total magnetization       =   108.00 Bohr mag/cell
     absolute magnetization    =   126.66 Bohr mag/cell

     convergence has been achieved in  20 iterations

     Forces acting on atoms (cartesian axes, Ry/au):

     atom    1 type  2   force =     0.00010503    0.00016195    0.00026806
     atom    2 type  2   force =     0.00011411   -0.00003724    0.00009942
     atom    3 type  2   force =    -0.00019291    0.00002546    0.00018106
     atom    4 type  1   force =    -0.00005243    0.00003453    0.00029389
     atom    5 type  1   force =     0.00014258   -0.00008162    0.00029407
     atom    6 type  2   force =    -0.00011944    0.00015591    0.00035237
     atom    7 type  2   force =     0.00008358   -0.00008151    0.00043599
     atom    8 type  2   force =    -0.00008936   -0.00017457    0.00026340
     atom    9 type  4   force =     0.00011000    0.00016211   -0.00026473
     atom   10 type  4   force =     0.00011511   -0.00003588   -0.00043379
     atom   11 type  4   force =    -0.00019117    0.00002425   -0.00035315
     atom   12 type  3   force =    -0.00006959    0.00003325   -0.00029378
     atom   13 type  3   force =     0.00016214   -0.00007549   -0.00029427
     atom   14 type  4   force =    -0.00011824    0.00015326   -0.00018133
     atom   15 type  4   force =     0.00008866   -0.00008114   -0.00009820
     atom   16 type  4   force =    -0.00008949   -0.00017087   -0.00026939
     atom   17 type  2   force =     0.00010481    0.00016323    0.00026789
     atom   18 type  2   force =     0.00011345   -0.00003772    0.00009951
     atom   19 type  2   force =    -0.00019182    0.00002511    0.00018106
     atom   20 type  1   force =    -0.00004528    0.00002213    0.00029384
     atom   21 type  1   force =     0.00014391   -0.00008911    0.00029402
     atom   22 type  2   force =    -0.00011885    0.00015468    0.00035330
     atom   23 type  2   force =     0.00008326   -0.00008000    0.00043524
     atom   24 type  2   force =    -0.00008988   -0.00017474    0.00026331
     atom   25 type  4   force =     0.00010988    0.00016367   -0.00026521
     atom   26 type  4   force =     0.00011500   -0.00003601   -0.00043485
     atom   27 type  4   force =    -0.00019193    0.00002344   -0.00035241
     atom   28 type  3   force =    -0.00007611    0.00002880   -0.00029380
     atom   29 type  3   force =     0.00016775   -0.00008535   -0.00029417
     atom   30 type  4   force =    -0.00011723    0.00015249   -0.00018076
     atom   31 type  4   force =     0.00008829   -0.00008029   -0.00009786
     atom   32 type  4   force =    -0.00008918   -0.00017157   -0.00026974
     atom   33 type  2   force =     0.00010561    0.00016203    0.00026883
     atom   34 type  2   force =     0.00011389   -0.00003755    0.00009922
     atom   35 type  2   force =    -0.00019284    0.00002613    0.00018029
     atom   36 type  1   force =    -0.00004832    0.00002858    0.00029370
     atom   37 type  1   force =     0.00013729   -0.00007788    0.00029396
     atom   38 type  2   force =    -0.00011965    0.00015522    0.00035329
     atom   39 type  2   force =     0.00008313   -0.00008127    0.00043539
     atom   40 type  2   force =    -0.00008909   -0.00017444    0.00026331
     atom   41 type  4   force =     0.00011034    0.00016249   -0.00026440
     atom   42 type  4   force =     0.00011444   -0.00003556   -0.00043418
     atom   43 type  4   force =    -0.00019144    0.00002325   -0.00035305
     atom   44 type  3   force =    -0.00007107    0.00003048   -0.00029378
     atom   45 type  3   force =     0.00016111   -0.00007422   -0.00029411
     atom   46 type  4   force =    -0.00011793    0.00015239   -0.00018048
     atom   47 type  4   force =     0.00008744   -0.00008075   -0.00009864
     atom   48 type  4   force =    -0.00008942   -0.00017119   -0.00026857
     atom   49 type  2   force =     0.00010488    0.00016212    0.00026901
     atom   50 type  2   force =     0.00011377   -0.00003841    0.00009941
     atom   51 type  2   force =    -0.00019225    0.00002650    0.00018044
     atom   52 type  1   force =    -0.00004459    0.00003436    0.00029389
     atom   53 type  1   force =     0.00014368   -0.00007487    0.00029408
     atom   54 type  2   force =    -0.00011966    0.00015510    0.00035227
     atom   55 type  2   force =     0.00008428   -0.00008124    0.00043591
     atom   56 type  2   force =    -0.00009027   -0.00017424    0.00026326
     atom   57 type  4   force =     0.00010937    0.00016250   -0.00026436
     atom   58 type  4   force =     0.00011543   -0.00003485   -0.00043357
     atom   59 type  4   force =    -0.00019160    0.00002325   -0.00035243
     atom   60 type  3   force =    -0.00007661    0.00003092   -0.00029379
     atom   61 type  3   force =     0.00016413   -0.00007315   -0.00029427
     atom   62 type  4   force =    -0.00011811    0.00015209   -0.00018131
     atom   63 type  4   force =     0.00008787   -0.00008122   -0.00009860
     atom   64 type  4   force =    -0.00008864   -0.00017079   -0.00026901
     atom   65 type  2   force =     0.00010542    0.00016339    0.00026883
     atom   66 type  2   force =     0.00011332   -0.00003850    0.00009864
     atom   67 type  2   force =    -0.00019257    0.00002530    0.00018121
     atom   68 type  1   force =    -0.00004837    0.00002870    0.00029393
     atom   69 type  1   force =     0.00014894   -0.00008464    0.00029409
     atom   70 type  2   force =    -0.00011877    0.00015539    0.00035235
     atom   71 type  2   force =     0.00008367   -0.00008029    0.00043599
     atom   72 type  2   force =    -0.00009032   -0.00017493    0.00026330
     atom   73 type  4   force =     0.00011006    0.00016334   -0.00026421
     atom   74 type  4   force =     0.00011553   -0.00003549   -0.00043419
     atom   75 type  4   force =    -0.00019155    0.00002369   -0.00035249
     atom   76 type  3   force =    -0.00007492    0.00002192   -0.00029373
     atom   77 type  3   force =     0.00016524   -0.00008049   -0.00029433
     atom   78 type  4   force =    -0.00011801    0.00015270   -0.00018116
     atom   79 type  4   force =     0.00008804   -0.00008034   -0.00009866
     atom   80 type  4   force =    -0.00008846   -0.00017101   -0.00026988
     atom   81 type  2   force =     0.00010545    0.00016292    0.00026880
     atom   82 type  2   force =     0.00011302   -0.00003819    0.00009937
     atom   83 type  2   force =    -0.00019184    0.00002557    0.00018036
     atom   84 type  1   force =    -0.00004161    0.00002894    0.00029387
     atom   85 type  1   force =     0.00015025   -0.00007802    0.00029394
     atom   86 type  2   force =    -0.00011843    0.00015497    0.00035250
     atom   87 type  2   force =     0.00008310   -0.00008076    0.00043515
     atom   88 type  2   force =    -0.00009067   -0.00017451    0.00026417
     atom   89 type  4   force =     0.00011023    0.00016300   -0.00026452
     atom   90 type  4   force =     0.00011570   -0.00003487   -0.00043455
     atom   91 type  4   force =    -0.00019265    0.00002353   -0.00035268
     atom   92 type  3   force =    -0.00008165    0.00003013   -0.00029366
     atom   93 type  3   force =     0.00017070   -0.00007630   -0.00029422
     atom   94 type  4   force =    -0.00011706    0.00015258   -0.00018132
     atom   95 type  4   force =     0.00008742   -0.00008143   -0.00009845
     atom   96 type  4   force =    -0.00008786   -0.00017107   -0.00026933
     atom   97 type  2   force =     0.00010432    0.00016231    0.00026808
     atom   98 type  2   force =     0.00011421   -0.00003802    0.00009967
     atom   99 type  2   force =    -0.00019209    0.00002587    0.00018114
     atom  100 type  1   force =    -0.00004835    0.00002868    0.00029393
     atom  101 type  1   force =     0.00014449   -0.00008202    0.00029410
     atom  102 type  2   force =    -0.00011904    0.00015470    0.00035244
     atom  103 type  2   force =     0.00008367   -0.00008131    0.00043491
     atom  104 type  2   force =    -0.00008996   -0.00017347    0.00026402
     atom  105 type  4   force =     0.00010926    0.00016238   -0.00026549
     atom  106 type  4   force =     0.00011488   -0.00003495   -0.00043388
     atom  107 type  4   force =    -0.00019214    0.00002365   -0.00035303
     atom  108 type  3   force =    -0.00007509    0.00003769   -0.00029370
     atom  109 type  3   force =     0.00016367   -0.00008108   -0.00029429
     atom  110 type  4   force =    -0.00011777    0.00015258   -0.00018117
     atom  111 type  4   force =     0.00008826   -0.00008122   -0.00009749
     atom  112 type  4   force =    -0.00008853   -0.00017175   -0.00026984
     atom  113 type  2   force =     0.00010479    0.00016302    0.00026880
     atom  114 type  2   force =     0.00011460   -0.00003847    0.00009871
     atom  115 type  2   force =    -0.00019261    0.00002607    0.00018134
     atom  116 type  1   force =    -0.00005183    0.00002233    0.00029382
     atom  117 type  1   force =     0.00013791   -0.00008495    0.00029408
     atom  118 type  2   force =    -0.00011982    0.00015462    0.00035315
     atom  119 type  2   force =     0.00008385   -0.00008071    0.00043523
     atom  120 type  2   force =    -0.00008970   -0.00017398    0.00026305
     atom  121 type  4   force =     0.00010946    0.00016315   -0.00026478
     atom  122 type  4   force =     0.00011429   -0.00003514   -0.00043394
     atom  123 type  4   force =    -0.00019115    0.00002263   -0.00035265
     atom  124 type  3   force =    -0.00007028    0.00002661   -0.00029375
     atom  125 type  3   force =     0.00015703   -0.00008390   -0.00029416
     atom  126 type  4   force =    -0.00011827    0.00015179   -0.00018022
     atom  127 type  4   force =     0.00008769   -0.00007988   -0.00009815
     atom  128 type  4   force =    -0.00008929   -0.00017220   -0.00026962
     atom  129 type  2   force =     0.00010557    0.00016220    0.00026871
     atom  130 type  2   force =     0.00011432   -0.00003778    0.00009871
     atom  131 type  2   force =    -0.00019316    0.00002547    0.00018124
     atom  132 type  1   force =    -0.00005546    0.00002868    0.00029384
     atom  133 type  1   force =     0.00014313   -0.00008057    0.00029412
     atom  134 type  2   force =    -0.00011928    0.00015568    0.00035258
     atom  135 type  2   force =     0.00008296   -0.00008135    0.00043515
     atom  136 type  2   force =    -0.00008928   -0.00017397    0.00026401
     atom  137 type  4   force =     0.00011040    0.00016216   -0.00026453
     atom  138 type  4   force =     0.00011454   -0.00003506   -0.00043381
     atom  139 type  4   force =    -0.00019144    0.00002378   -0.00035368
     atom  140 type  3   force =    -0.00006853    0.00002993   -0.00029357
     atom  141 type  3   force =     0.00015813   -0.00007713   -0.00029423
     atom  142 type  4   force =    -0.00011836    0.00015312   -0.00018077
     atom  143 type  4   force =     0.00008756   -0.00008075   -0.00009838
     atom  144 type  4   force =    -0.00008867   -0.00017165   -0.00026954

     Total force =     0.003992     Total SCF correction =     0.000050


     Computing stress (Cartesian axis) and pressure

          total   stress  (Ry/bohr**3)                   (kbar)     P=       -0.20
   0.00000022  -0.00000011  -0.00000010            0.03       -0.02       -0.01
  -0.00000011   0.00000009  -0.00000017           -0.02        0.01       -0.03
  -0.00000010  -0.00000017  -0.00000433           -0.01       -0.03       -0.64


     Writing all to output data dir ./CrI3-HT-fm.save/ :
     XML data file
     init_run     :     31.47s CPU     66.47s WALL (       2 calls)
     electrons    :   4691.23s CPU   8672.37s WALL (      20 calls)
     update_pot   :     22.57s CPU     27.74s WALL (      18 calls)
     forces       :     91.06s CPU    106.34s WALL (      20 calls)
     force_dftd3  :      1.71s CPU      2.11s WALL (      20 calls)
     stress       :    191.73s CPU    217.22s WALL (      20 calls)
     stres_dftd3  :      1.59s CPU      1.90s WALL (      20 calls)

     Called by init_run:
     wfcinit      :      7.53s CPU     23.02s WALL (       2 calls)
     potinit      :      0.86s CPU      1.72s WALL (       2 calls)
     hinit0       :     19.26s CPU     26.66s WALL (       2 calls)

     Called by electrons:
     c_bands      :   3078.69s CPU   6282.35s WALL (     269 calls)
     sum_band     :   1403.79s CPU   2090.40s WALL (     269 calls)
     v_of_rho     :     86.34s CPU    127.65s WALL (     280 calls)
     mix_rho      :     95.64s CPU    136.38s WALL (     269 calls)
     energy_dftd3 :      0.60s CPU      0.70s WALL (      20 calls)

     Called by c_bands:
     init_us_2    :     43.11s CPU     47.96s WALL (    1160 calls)
     regterg      :   2337.98s CPU   5349.61s WALL (     539 calls)

     Called by *egterg:
     rdiaghg      :     61.61s CPU     84.35s WALL (    1968 calls)
                                       84.32s GPU  (    1968 calls)
     h_psi        :   1890.19s CPU   4838.54s WALL (    2027 calls)
                                     4838.55s GPU  (    2027 calls)
     g_psi        :      0.01s CPU      5.57s WALL (    1484 calls)
                                        5.40s GPU  (    1484 calls)

     Called by h_psi:
     h_psi:calbec :    386.73s CPU    443.78s WALL (    2027 calls)
                                      443.77s GPU  (    2027 calls)
     vloc_psi     :   1289.31s CPU   4161.49s WALL (    2027 calls)
                                     4161.49s GPU  (    2027 calls)
     add_vuspsi   :      1.80s CPU    227.50s WALL (    2027 calls)
                                      227.25s GPU  (    2027 calls)

     General routines
     calbec       :    577.36s CPU    654.99s WALL (    2707 calls)
     fft          :     71.08s CPU    118.19s WALL (    4307 calls)
                                      118.03s GPU  (    4307 calls)
     ffts         :      4.44s CPU      7.32s WALL (     269 calls)
                                        7.32s GPU  (     269 calls)
     fftw         :   1618.00s CPU   5596.72s WALL (  271014 calls)
                                     5577.70s GPU  (  271014 calls)
 
     Parallel routines
 
     PWSCF        :      1h26m CPU      2h34m WALL

 
   This run was terminated on:  10:22:43  30Jun2025            

=------------------------------------------------------------------------------=
   JOB DONE.
=------------------------------------------------------------------------------=
