
     Program PWSCF v.7.4.1 starts on  3Jul2025 at 16:28:23 

     This program is part of the open-source Quantum ESPRESSO suite
     for quantum simulation of materials; please cite
         "P. Giannozzi et al., J. Phys.:Condens. Matter 21 395502 (2009);
         "P. Giannozzi et al., J. Phys.:Condens. Matter 29 465901 (2017);
         "P. Giannozzi et al., J. Chem. Phys. 152 154105 (2020);
          URL http://www.quantum-espresso.org", 
     in publications or presentations arising from this work. More details at
     http://www.quantum-espresso.org/quote

     Parallel version (MPI), running on     8 processors

     MPI processes distributed on     1 nodes
     570784 MiB available memory on the printing compute node when the environment starts
 
     Reading input from CrI3.relax.in
Warning: card  &CELL ignored
Warning: card     CELL_DOFREE='2DXY' ignored
Warning: card  / ignored

     Current dimensions of program PWSCF are:
     Max number of different atomic species (ntypx) = 10
     Max number of k-points (npk) =  40000
     Max angular momentum in pseudopotentials (lmaxx) =  4
     Found identity + (  0.0000  0.3333 -0.0000) symmetry
     This is a supercell, fractional translations are disabled
 
     R & G space division:  proc/nbgrp/npool/nimage =       8
     Subspace diagonalization in iterative solution of the eigenvalue problem:
     a serial algorithm will be used

 
     Parallelization info
     --------------------
     sticks:   dense  smooth     PW     G-vecs:    dense   smooth      PW
     Min        4732    4732   1220              1285502  1285502  168978
     Max        4733    4733   1221              1285512  1285512  168988
     Sum       37857   37857   9761             10284031 10284031 1351867
 
     Using Slab Decomposition
 


     bravais-lattice index     =            0
     lattice parameter (alat)  =      37.0721  a.u.
     unit-cell volume          =   76128.6191 (a.u.)^3
     number of atoms/cell      =          144
     number of atomic types    =            4
     number of electrons       =      1260.00
     number of Kohn-Sham states=          756
     kinetic-energy cutoff     =     100.0000  Ry
     charge density cutoff     =     400.0000  Ry
     scf convergence threshold =      1.0E-07
     mixing beta               =       0.2000
     number of iterations used =            8  plain     mixing
     Exchange-correlation= PBE
                           (   1   4   3   4   0   0   0)

     GPU acceleration is ACTIVE.  1 visible GPUs per MPI rank

     Message from routine print_cuda_info:
     High GPU oversubscription detected. Are you sure this is what you want?

     celldm(1)=  37.072145  celldm(2)=   0.000000  celldm(3)=   0.000000
     celldm(4)=   0.000000  celldm(5)=   0.000000  celldm(6)=   0.000000

     crystal axes: (cart. coord. in units of alat)
               a(1) = (   1.000000  -0.000027   0.000000 )  
               a(2) = (  -0.500023   0.866018   0.000000 )  
               a(3) = (   0.000000   0.000000   1.725380 )  

     reciprocal axes: (cart. coord. in units 2 pi/alat)
               b(1) = (  1.000015  0.577391 -0.000000 )  
               b(2) = (  0.000031  1.154728 -0.000000 )  
               b(3) = ( -0.000000 -0.000000  0.579583 )  


     PseudoPot. # 1 for Cr read from file:
     ./Cr.upf
     MD5 check sum: 41892f80c335c8b1e803fd21ab4016b0
     Pseudo is Norm-conserving + core correction, Zval = 14.0
     Generated using ONCVPSP code by D. R. Hamann
     Using radial grid of 1638 points,  6 beta functions with: 
                l(1) =   0
                l(2) =   0
                l(3) =   1
                l(4) =   1
                l(5) =   2
                l(6) =   2

     PseudoPot. # 2 for I  read from file:
     ./I.upf
     MD5 check sum: 9cb9d574a1900baf8aa34970b08b8049
     Pseudo is Norm-conserving + core correction, Zval =  7.0
     Generated using ONCVPSP code by D. R. Hamann
     Using radial grid of 1188 points,  8 beta functions with: 
                l(1) =   0
                l(2) =   0
                l(3) =   1
                l(4) =   1
                l(5) =   2
                l(6) =   2
                l(7) =   3
                l(8) =   3

     PseudoPot. # 3 for Cr read from file:
     ./Cr.upf
     MD5 check sum: 41892f80c335c8b1e803fd21ab4016b0
     Pseudo is Norm-conserving + core correction, Zval = 14.0
     Generated using ONCVPSP code by D. R. Hamann
     Using radial grid of 1638 points,  6 beta functions with: 
                l(1) =   0
                l(2) =   0
                l(3) =   1
                l(4) =   1
                l(5) =   2
                l(6) =   2

     PseudoPot. # 4 for I  read from file:
     ./I.upf
     MD5 check sum: 9cb9d574a1900baf8aa34970b08b8049
     Pseudo is Norm-conserving + core correction, Zval =  7.0
     Generated using ONCVPSP code by D. R. Hamann
     Using radial grid of 1188 points,  8 beta functions with: 
                l(1) =   0
                l(2) =   0
                l(3) =   1
                l(4) =   1
                l(5) =   2
                l(6) =   2
                l(7) =   3
                l(8) =   3

     atomic species   valence    mass     pseudopotential
     Cr1              14.00    52.00000     Cr( 1.00)
     I1                7.00   127.00000     I ( 1.00)
     Cr2              14.00    52.00000     Cr( 1.00)
     I2                7.00   127.00000     I ( 1.00)

     Starting magnetic structure 
     atomic species   magnetization
     Cr1             0.100
     I1              0.100
     Cr2            -0.100
     I2             -0.100

     No symmetry found



   Cartesian axes

     site n.     atom                  positions (alat units)
         1        I1     tau(   1) = (   0.2249060   0.1281230   0.5414504  )
         2        I1     tau(   2) = (   0.0545377   0.2265240   0.5414814  )
         3        I1     tau(   3) = (   0.0546016   0.0298078   0.5414986  )
         4        Cr1    tau(   4) = (  -0.0553143   0.2243766   0.6200453  )
         5        Cr1    tau(   5) = (   0.2780053   0.0319352   0.6200453  )
         6        I1     tau(   6) = (   0.1681631   0.2265076   0.6986421  )
         7        I1     tau(   7) = (  -0.0022808   0.1281710   0.6986610  )
         8        I1     tau(   8) = (   0.1681739   0.0297905   0.6986904  )
         9        I2     tau(   9) = (   0.0027204   0.1281288   1.0266879  )
        10        I2     tau(  10) = (   0.1656276   0.2265552   1.0267205  )
        11        I2     tau(  11) = (   0.1656928   0.0297699   1.0267376  )
        12        Cr2    tau(  12) = (   0.0557947   0.2243744   1.1053343  )
        13        Cr2    tau(  13) = (   0.0557841   0.0319401   1.1053343  )
        14        I2     tau(  14) = (  -0.0540784   0.2264802   1.1838809  )
        15        I2     tau(  15) = (   0.1088645   0.1281682   1.1838980  )
        16        I2     tau(  16) = (   0.2792667   0.0298200   1.1839288  )
        17        I1     tau(  17) = (   0.0582322   0.4167968   0.5414503  )
        18        I1     tau(  18) = (  -0.1121376   0.5151964   0.5414814  )
        19        I1     tau(  19) = (  -0.1120717   0.3184799   0.5414987  )
        20        Cr1    tau(  20) = (  -0.2219904   0.5130523   0.6200453  )
        21        Cr1    tau(  21) = (   0.1113313   0.3206097   0.6200453  )
        22        I1     tau(  22) = (   0.0014901   0.5151795   0.6986423  )
        23        I1     tau(  23) = (  -0.1689556   0.4168456   0.6986607  )
        24        I1     tau(  24) = (   0.0015001   0.3184631   0.6986903  )
        25        I2     tau(  25) = (  -0.1639541   0.4168030   1.0266877  )
        26        I2     tau(  26) = (  -0.0010460   0.5152270   1.0267199  )
        27        I2     tau(  27) = (  -0.0009820   0.3184437   1.0267376  )
        28        Cr2    tau(  28) = (  -0.1108777   0.5130480   1.1053343  )
        29        Cr2    tau(  29) = (  -0.1108912   0.3206155   1.1053342  )
        30        I2     tau(  30) = (  -0.2207512   0.5151517   1.1838811  )
        31        I2     tau(  31) = (  -0.0578089   0.4168416   1.1838983  )
        32        I2     tau(  32) = (   0.1125913   0.3184935   1.1839288  )
        33        I1     tau(  33) = (  -0.1084422   0.7054678   0.5414505  )
        34        I1     tau(  34) = (  -0.2788124   0.8038686   0.5414813  )
        35        I1     tau(  35) = (  -0.2787477   0.6071539   0.5414984  )
        36        Cr1    tau(  36) = (  -0.3886647   0.8017231   0.6200453  )
        37        Cr1    tau(  37) = (  -0.0553416   0.6092800   0.6200453  )
        38        I1     tau(  38) = (  -0.1651855   0.8038522   0.6986423  )
        39        I1     tau(  39) = (  -0.3356301   0.7055172   0.6986609  )
        40        I1     tau(  40) = (  -0.1651736   0.6071365   0.6986903  )
        41        I2     tau(  41) = (  -0.3306279   0.7054738   1.0266879  )
        42        I2     tau(  42) = (  -0.1677204   0.8038988   1.0267201  )
        43        I2     tau(  43) = (  -0.1676552   0.6071163   1.0267374  )
        44        Cr2    tau(  44) = (  -0.2775529   0.8017193   1.1053343  )
        45        Cr2    tau(  45) = (  -0.2775637   0.6092854   1.1053342  )
        46        I2     tau(  46) = (  -0.3874261   0.8038242   1.1838811  )
        47        I2     tau(  47) = (  -0.2244829   0.7055132   1.1838981  )
        48        I2     tau(  48) = (  -0.0540830   0.6071667   1.1839292  )
        49        I1     tau(  49) = (   0.5582409   0.1281139   0.5414508  )
        50        I1     tau(  50) = (   0.3878688   0.2265153   0.5414816  )
        51        I1     tau(  51) = (   0.3879339   0.0297982   0.5414986  )
        52        Cr1    tau(  52) = (   0.2780159   0.2243677   0.6200453  )
        53        Cr1    tau(  53) = (   0.6113391   0.0319244   0.6200453  )
        54        I1     tau(  54) = (   0.5014972   0.2264995   0.6986417  )
        55        I1     tau(  55) = (   0.3310509   0.1281624   0.6986608  )
        56        I1     tau(  56) = (   0.5015075   0.0297803   0.6986901  )
        57        I2     tau(  57) = (   0.3360555   0.1281201   1.0266882  )
        58        I2     tau(  58) = (   0.4989632   0.2265464   1.0267203  )
        59        I2     tau(  59) = (   0.4990273   0.0297613   1.0267376  )
        60        Cr2    tau(  60) = (   0.3891310   0.2243659   1.1053343  )
        61        Cr2    tau(  61) = (   0.3891183   0.0319305   1.1053343  )
        62        I2     tau(  62) = (   0.2792570   0.2264717   1.1838806  )
        63        I2     tau(  63) = (   0.4421992   0.1281588   1.1838980  )
        64        I2     tau(  64) = (   0.6126002   0.0298123   1.1839291  )
        65        I1     tau(  65) = (   0.3915654   0.4167888   0.5414506  )
        66        I1     tau(  66) = (   0.2211953   0.5151870   0.5414812  )
        67        I1     tau(  67) = (   0.2212600   0.3184715   0.5414986  )
        68        Cr1    tau(  68) = (   0.1113431   0.5130415   0.6200453  )
        69        Cr1    tau(  69) = (   0.4446629   0.3206003   0.6200453  )
        70        I1     tau(  70) = (   0.3348230   0.5151712   0.6986421  )
        71        I1     tau(  71) = (   0.1643776   0.4168358   0.6986610  )
        72        I1     tau(  72) = (   0.3348319   0.3184538   0.6986902  )
        73        I2     tau(  73) = (   0.1693801   0.4167947   1.0266881  )
        74        I2     tau(  74) = (   0.3322877   0.5152191   1.0267202  )
        75        I2     tau(  75) = (   0.3323522   0.3184343   1.0267378  )
        76        Cr2    tau(  76) = (   0.2224555   0.5130413   1.1053343  )
        77        Cr2    tau(  77) = (   0.2224429   0.3206060   1.1053343  )
        78        I2     tau(  78) = (   0.1125819   0.5151440   1.1838809  )
        79        I2     tau(  79) = (   0.2755240   0.4168335   1.1838979  )
        80        I2     tau(  80) = (   0.4459267   0.3184849   1.1839287  )
        81        I1     tau(  81) = (   0.2248914   0.7054599   0.5414506  )
        82        I1     tau(  82) = (   0.0545202   0.8038590   0.5414814  )
        83        I1     tau(  83) = (   0.0545864   0.6071440   0.5414984  )
        84        Cr1    tau(  84) = (  -0.0553331   0.8017134   0.6200453  )
        85        Cr1    tau(  85) = (   0.2779889   0.6092711   0.6200453  )
        86        I1     tau(  86) = (   0.1681498   0.8038427   0.6986420  )
        87        I1     tau(  87) = (  -0.0022970   0.7055078   0.6986608  )
        88        I1     tau(  88) = (   0.1681584   0.6071268   0.6986905  )
        89        I2     tau(  89) = (   0.0027055   0.7054663   1.0266878  )
        90        I2     tau(  90) = (   0.1656144   0.8038906   1.0267199  )
        91        I2     tau(  91) = (   0.1656771   0.6071085   1.0267374  )
        92        Cr2    tau(  92) = (   0.0557831   0.8017110   1.1053342  )
        93        Cr2    tau(  93) = (   0.0557676   0.6092775   1.1053343  )
        94        I2     tau(  94) = (  -0.0540912   0.8038151   1.1838809  )
        95        I2     tau(  95) = (   0.1088508   0.7055043   1.1838982  )
        96        I2     tau(  96) = (   0.2792517   0.6071588   1.1839291  )
        97        I1     tau(  97) = (   0.8915743   0.1281055   0.5414505  )
        98        I1     tau(  98) = (   0.7212036   0.2265069   0.5414817  )
        99        I1     tau(  99) = (   0.7212681   0.0297886   0.5414988  )
       100        Cr1    tau( 100) = (   0.6113508   0.2243599   0.6200452  )
       101        Cr1    tau( 101) = (   0.9446729   0.0319174   0.6200453  )
       102        I1     tau( 102) = (   0.8348320   0.2264900   0.6986419  )
       103        I1     tau( 103) = (   0.6643844   0.1281530   0.6986604  )
       104        I1     tau( 104) = (   0.8348417   0.0297721   0.6986903  )
       105        I2     tau( 105) = (   0.6693878   0.1281115   1.0266877  )
       106        I2     tau( 106) = (   0.8322957   0.2265368   1.0267201  )
       107        I2     tau( 107) = (   0.8323600   0.0297534   1.0267373  )
       108        Cr2    tau( 108) = (   0.7224638   0.2243557   1.1053343  )
       109        Cr2    tau( 109) = (   0.7224514   0.0319238   1.1053343  )
       110        I2     tau( 110) = (   0.6125903   0.2264620   1.1838809  )
       111        I2     tau( 111) = (   0.7755330   0.1281504   1.1838984  )
       112        I2     tau( 112) = (   0.9459325   0.0298031   1.1839289  )
       113        I1     tau( 113) = (   0.7249001   0.4167792   0.5414507  )
       114        I1     tau( 114) = (   0.5545287   0.5151795   0.5414814  )
       115        I1     tau( 115) = (   0.5545925   0.3184623   0.5414989  )
       116        Cr1    tau( 116) = (   0.4446766   0.5130346   0.6200453  )
       117        Cr1    tau( 117) = (   0.7779999   0.3205914   0.6200452  )
       118        I1     tau( 118) = (   0.6681566   0.5151630   0.6986421  )
       119        I1     tau( 119) = (   0.4977097   0.4168272   0.6986606  )
       120        I1     tau( 120) = (   0.6681677   0.3184450   0.6986899  )
       121        I2     tau( 121) = (   0.5027141   0.4167849   1.0266879  )
       122        I2     tau( 122) = (   0.6656211   0.5152088   1.0267200  )
       123        I2     tau( 123) = (   0.6656871   0.3184256   1.0267375  )
       124        Cr2    tau( 124) = (   0.5557886   0.5130309   1.1053343  )
       125        Cr2    tau( 125) = (   0.5557790   0.3205975   1.1053343  )
       126        I2     tau( 126) = (   0.4459156   0.5151350   1.1838811  )
       127        I2     tau( 127) = (   0.6088589   0.4168246   1.1838983  )
       128        I2     tau( 128) = (   0.7792579   0.3184760   1.1839290  )
       129        I1     tau( 129) = (   0.5582245   0.7054514   0.5414505  )
       130        I1     tau( 130) = (   0.3878555   0.8038508   0.5414812  )
       131        I1     tau( 131) = (   0.3879183   0.6071360   0.5414986  )
       132        Cr1    tau( 132) = (   0.2780038   0.8017044   0.6200453  )
       133        Cr1    tau( 133) = (   0.6113237   0.6092635   0.6200453  )
       134        I1     tau( 134) = (   0.5014822   0.8038344   0.6986422  )
       135        I1     tau( 135) = (   0.3310366   0.7054980   0.6986608  )
       136        I1     tau( 136) = (   0.5014924   0.6071189   0.6986905  )
       137        I2     tau( 137) = (   0.3360385   0.7054569   1.0266878  )
       138        I2     tau( 138) = (   0.4989458   0.8038812   1.0267201  )
       139        I2     tau( 139) = (   0.4990117   0.6070990   1.0267372  )
       140        Cr2    tau( 140) = (   0.3891131   0.8017024   1.1053342  )
       141        Cr2    tau( 141) = (   0.3891036   0.6092691   1.1053343  )
       142        I2     tau( 142) = (   0.2792403   0.8038069   1.1838811  )
       143        I2     tau( 143) = (   0.4421838   0.7054966   1.1838982  )
       144        I2     tau( 144) = (   0.6125847   0.6071491   1.1839290  )

     --------------------------------------------
     DFT-D3 Dispersion Correction (3-body terms):
     --------------------------------------------
       Reference C6 values for interpolation: 

         atom   Coordination number   C6
         Cr1        0.000          1381.48
         Cr1        1.827           571.38
         Cr1       10.619           306.69
         Cr2        0.000          1381.48
         Cr2        1.827           571.38
         Cr2       10.619           306.69
         I1         0.000           703.93
         I1         0.997           717.00
         I2         0.000           703.93
         I2         0.997           717.00

       Values used:

         atom   Coordination number  R0_AB[au]  C6      C8
         I1         4.278            3.532    717.00  65856.01
         I1         4.279            3.532    717.00  65856.01
         I1         4.279            3.532    717.00  65856.01
         Cr1        5.960            3.252    571.38  52732.00
         Cr1        5.960            3.252    571.38  52732.00
         I1         4.282            3.532    717.00  65856.01
         I1         4.282            3.532    717.00  65856.01
         I1         4.282            3.532    717.00  65856.01
         I2         4.282            3.532    717.00  65856.01
         I2         4.282            3.532    717.00  65856.01
         I2         4.282            3.532    717.00  65856.01
         Cr2        5.960            3.252    571.38  52732.00
         Cr2        5.960            3.252    571.38  52732.00
         I2         4.279            3.532    717.00  65856.01
         I2         4.279            3.532    717.00  65856.01
         I2         4.278            3.532    717.00  65856.01
         I1         4.278            3.532    717.00  65856.01
         I1         4.279            3.532    717.00  65856.01
         I1         4.279            3.532    717.00  65856.01
         Cr1        5.960            3.252    571.38  52732.00
         Cr1        5.960            3.252    571.38  52732.00
         I1         4.282            3.532    717.00  65856.01
         I1         4.282            3.532    717.00  65856.01
         I1         4.282            3.532    717.00  65856.01
         I2         4.282            3.532    717.00  65856.01
         I2         4.282            3.532    717.00  65856.01
         I2         4.282            3.532    717.00  65856.01
         Cr2        5.960            3.252    571.38  52732.00
         Cr2        5.960            3.252    571.38  52732.00
         I2         4.279            3.532    717.00  65856.01
         I2         4.279            3.532    717.00  65856.01
         I2         4.278            3.532    717.00  65856.01
         I1         4.278            3.532    717.00  65856.01
         I1         4.279            3.532    717.00  65856.01
         I1         4.279            3.532    717.00  65856.01
         Cr1        5.960            3.252    571.38  52732.00
         Cr1        5.960            3.252    571.38  52732.00
         I1         4.282            3.532    717.00  65856.01
         I1         4.282            3.532    717.00  65856.01
         I1         4.282            3.532    717.00  65856.01
         I2         4.282            3.532    717.00  65856.01
         I2         4.282            3.532    717.00  65856.01
         I2         4.282            3.532    717.00  65856.01
         Cr2        5.960            3.252    571.38  52732.00
         Cr2        5.960            3.252    571.38  52732.00
         I2         4.279            3.532    717.00  65856.01
         I2         4.279            3.532    717.00  65856.01
         I2         4.278            3.532    717.00  65856.01
         I1         4.278            3.532    717.00  65856.01
         I1         4.279            3.532    717.00  65856.01
         I1         4.279            3.532    717.00  65856.01
         Cr1        5.960            3.252    571.38  52732.00
         Cr1        5.960            3.252    571.38  52732.00
         I1         4.282            3.532    717.00  65856.01
         I1         4.282            3.532    717.00  65856.01
         I1         4.282            3.532    717.00  65856.01
         I2         4.282            3.532    717.00  65856.01
         I2         4.282            3.532    717.00  65856.01
         I2         4.282            3.532    717.00  65856.01
         Cr2        5.960            3.252    571.38  52732.00
         Cr2        5.960            3.252    571.38  52732.00
         I2         4.279            3.532    717.00  65856.01
         I2         4.279            3.532    717.00  65856.01
         I2         4.278            3.532    717.00  65856.01
         I1         4.278            3.532    717.00  65856.01
         I1         4.279            3.532    717.00  65856.01
         I1         4.279            3.532    717.00  65856.01
         Cr1        5.960            3.252    571.38  52732.00
         Cr1        5.960            3.252    571.38  52732.00
         I1         4.282            3.532    717.00  65856.01
         I1         4.282            3.532    717.00  65856.01
         I1         4.282            3.532    717.00  65856.01
         I2         4.282            3.532    717.00  65856.01
         I2         4.282            3.532    717.00  65856.01
         I2         4.282            3.532    717.00  65856.01
         Cr2        5.960            3.252    571.38  52732.00
         Cr2        5.959            3.252    571.38  52732.00
         I2         4.279            3.532    717.00  65856.01
         I2         4.279            3.532    717.00  65856.01
         I2         4.278            3.532    717.00  65856.01
         I1         4.278            3.532    717.00  65856.01
         I1         4.279            3.532    717.00  65856.01
         I1         4.279            3.532    717.00  65856.01
         Cr1        5.960            3.252    571.38  52732.00
         Cr1        5.960            3.252    571.38  52732.00
         I1         4.282            3.532    717.00  65856.01
         I1         4.282            3.532    717.00  65856.01
         I1         4.282            3.532    717.00  65856.01
         I2         4.282            3.532    717.00  65856.01
         I2         4.282            3.532    717.00  65856.01
         I2         4.282            3.532    717.00  65856.01
         Cr2        5.960            3.252    571.38  52732.00
         Cr2        5.960            3.252    571.38  52732.00
         I2         4.279            3.532    717.00  65856.01
         I2         4.279            3.532    717.00  65856.01
         I2         4.278            3.532    717.00  65856.01
         I1         4.278            3.532    717.00  65856.01
         I1         4.279            3.532    717.00  65856.01
         I1         4.279            3.532    717.00  65856.01
         Cr1        5.960            3.252    571.38  52732.00
         Cr1        5.960            3.252    571.38  52732.00
         I1         4.282            3.532    717.00  65856.01
         I1         4.282            3.532    717.00  65856.01
         I1         4.282            3.532    717.00  65856.01
         I2         4.282            3.532    717.00  65856.01
         I2         4.282            3.532    717.00  65856.01
         I2         4.282            3.532    717.00  65856.01
         Cr2        5.960            3.252    571.38  52732.00
         Cr2        5.960            3.252    571.38  52732.00
         I2         4.279            3.532    717.00  65856.01
         I2         4.279            3.532    717.00  65856.01
         I2         4.278            3.532    717.00  65856.01
         I1         4.278            3.532    717.00  65856.01
         I1         4.279            3.532    717.00  65856.01
         I1         4.279            3.532    717.00  65856.01
         Cr1        5.960            3.252    571.38  52732.00
         Cr1        5.960            3.252    571.38  52732.00
         I1         4.282            3.532    717.00  65856.01
         I1         4.282            3.532    717.00  65856.01
         I1         4.282            3.532    717.00  65856.01
         I2         4.282            3.532    717.00  65856.01
         I2         4.282            3.532    717.00  65856.01
         I2         4.282            3.532    717.00  65856.01
         Cr2        5.960            3.252    571.38  52732.00
         Cr2        5.960            3.252    571.38  52732.00
         I2         4.279            3.532    717.00  65856.01
         I2         4.279            3.532    717.00  65856.01
         I2         4.278            3.532    717.00  65856.01
         I1         4.278            3.532    717.00  65856.01
         I1         4.279            3.532    717.00  65856.01
         I1         4.279            3.532    717.00  65856.01
         Cr1        5.960            3.252    571.38  52732.00
         Cr1        5.960            3.252    571.38  52732.00
         I1         4.282            3.532    717.00  65856.01
         I1         4.282            3.532    717.00  65856.01
         I1         4.282            3.532    717.00  65856.01
         I2         4.282            3.532    717.00  65856.01
         I2         4.282            3.532    717.00  65856.01
         I2         4.282            3.532    717.00  65856.01
         Cr2        5.960            3.252    571.38  52732.00
         Cr2        5.960            3.252    571.38  52732.00
         I2         4.279            3.532    717.00  65856.01
         I2         4.279            3.532    717.00  65856.01
         I2         4.278            3.532    717.00  65856.01

         Molecular C6 ( Ry / a.u.^6 ) =  13954869.20


     number of k points=     4  Fermi-Dirac smearing, width (Ry)=  0.0032
                       cart. coord. in units 2pi/alat
        k(    1) = (   0.0000000   0.0000000   0.0000000), wk =   0.2500000
        k(    2) = (  -0.0000154  -0.5773642   0.0000000), wk =   0.2500000
        k(    3) = (  -0.5000077  -0.2886955   0.0000000), wk =   0.2500000
        k(    4) = (  -0.5000231  -0.8660596   0.0000000), wk =   0.2500000

     Dense  grid: 10284031 G-vectors     FFT dimensions: ( 240, 240, 432)

     Estimated max dynamical RAM per process >      34.87 GB

     Estimated total dynamical RAM >     278.95 GB
     Generating pointlists ...
     new r_m :   0.0557 (alat units)  2.0655 (a.u.) for type    1
     new r_m :   0.0557 (alat units)  2.0655 (a.u.) for type    2
     new r_m :   0.0557 (alat units)  2.0655 (a.u.) for type    3
     new r_m :   0.0557 (alat units)  2.0655 (a.u.) for type    4

     Initial potential from superposition of free atoms

     starting charge    1259.9403, renormalised to    1260.0000

     negative rho (up, down):  2.025E-04 2.025E-04
     Starting wfcs are  792 randomized atomic wfcs

     total cpu time spent up to now is       92.2 secs

     Self-consistent Calculation

     iteration #  1     ecut=   100.00 Ry     beta= 0.20
     Davidson diagonalization with overlap
     ethr =  1.00E-02,  avg # of iterations =  2.0

     total cpu time spent up to now is      286.9 secs

     total energy              =   -9210.01845912 Ry
     estimated scf accuracy    <      20.98432926 Ry

     total magnetization       =     0.00 Bohr mag/cell
     absolute magnetization    =   106.52 Bohr mag/cell

     iteration #  2     ecut=   100.00 Ry     beta= 0.20
     Davidson diagonalization with overlap
     ethr =  1.67E-03,  avg # of iterations =  2.0

     total cpu time spent up to now is      469.5 secs

     total energy              =   -9213.51352931 Ry
     estimated scf accuracy    <       6.96358697 Ry

     total magnetization       =    -0.00 Bohr mag/cell
     absolute magnetization    =   108.60 Bohr mag/cell

     iteration #  3     ecut=   100.00 Ry     beta= 0.20
     Davidson diagonalization with overlap
     ethr =  5.53E-04,  avg # of iterations =  1.0

     total cpu time spent up to now is      637.4 secs

     total energy              =   -9214.96284315 Ry
     estimated scf accuracy    <       2.05176925 Ry

     total magnetization       =    -0.00 Bohr mag/cell
     absolute magnetization    =   109.49 Bohr mag/cell

     iteration #  4     ecut=   100.00 Ry     beta= 0.20
     Davidson diagonalization with overlap
     ethr =  1.63E-04,  avg # of iterations =  3.0

     total cpu time spent up to now is      856.1 secs

     total energy              =   -9215.04403478 Ry
     estimated scf accuracy    <       1.90511813 Ry

     total magnetization       =    -0.00 Bohr mag/cell
     absolute magnetization    =   118.62 Bohr mag/cell

     iteration #  5     ecut=   100.00 Ry     beta= 0.20
     Davidson diagonalization with overlap
     ethr =  1.51E-04,  avg # of iterations =  2.0

     negative rho (up, down):  2.514E-05 2.522E-05

     total cpu time spent up to now is     1053.8 secs

     total energy              =   -9215.69545392 Ry
     estimated scf accuracy    <       0.40942220 Ry

     total magnetization       =    -0.00 Bohr mag/cell
     absolute magnetization    =   114.87 Bohr mag/cell

     iteration #  6     ecut=   100.00 Ry     beta= 0.20
     Davidson diagonalization with overlap
     ethr =  3.25E-05,  avg # of iterations =  3.3

     total cpu time spent up to now is     1278.9 secs

     total energy              =   -9215.79155844 Ry
     estimated scf accuracy    <       0.36041367 Ry

     total magnetization       =    -0.00 Bohr mag/cell
     absolute magnetization    =   122.09 Bohr mag/cell

     iteration #  7     ecut=   100.00 Ry     beta= 0.20
     Davidson diagonalization with overlap
     ethr =  2.86E-05,  avg # of iterations =  2.0

     total cpu time spent up to now is     1473.9 secs

     total energy              =   -9215.81569630 Ry
     estimated scf accuracy    <       0.04553650 Ry

     total magnetization       =     0.00 Bohr mag/cell
     absolute magnetization    =   122.33 Bohr mag/cell

     iteration #  8     ecut=   100.00 Ry     beta= 0.20
     Davidson diagonalization with overlap
     ethr =  3.61E-06,  avg # of iterations =  2.0

     negative rho (up, down):  2.285E-05 2.283E-05

     total cpu time spent up to now is     1675.3 secs

     total energy              =   -9215.83386538 Ry
     estimated scf accuracy    <       0.00811309 Ry

     total magnetization       =    -0.00 Bohr mag/cell
     absolute magnetization    =   123.46 Bohr mag/cell

     iteration #  9     ecut=   100.00 Ry     beta= 0.20
     Davidson diagonalization with overlap
     ethr =  6.44E-07,  avg # of iterations =  2.8

     negative rho (up, down):  2.206E-05 2.209E-05

     total cpu time spent up to now is     1886.6 secs

     total energy              =   -9215.84256595 Ry
     estimated scf accuracy    <       0.01824057 Ry

     total magnetization       =    -0.00 Bohr mag/cell
     absolute magnetization    =   124.29 Bohr mag/cell

     iteration # 10     ecut=   100.00 Ry     beta= 0.20
     Davidson diagonalization with overlap
     ethr =  6.44E-07,  avg # of iterations =  2.0

     negative rho (up, down):  1.324E-05 1.325E-05

     total cpu time spent up to now is     2058.3 secs

     total energy              =   -9215.83515583 Ry
     estimated scf accuracy    <       0.01954534 Ry

     total magnetization       =     0.00 Bohr mag/cell
     absolute magnetization    =   125.10 Bohr mag/cell

     iteration # 11     ecut=   100.00 Ry     beta= 0.20
     Davidson diagonalization with overlap
     ethr =  6.44E-07,  avg # of iterations =  2.0

     negative rho (up, down):  4.449E-06 4.468E-06

     total cpu time spent up to now is     2262.1 secs

     total energy              =   -9215.83834324 Ry
     estimated scf accuracy    <       0.00067983 Ry

     total magnetization       =    -0.00 Bohr mag/cell
     absolute magnetization    =   125.95 Bohr mag/cell

     iteration # 12     ecut=   100.00 Ry     beta= 0.20
     Davidson diagonalization with overlap
     ethr =  5.40E-08,  avg # of iterations =  4.0

     negative rho (up, down):  4.293E-06 4.311E-06

     total cpu time spent up to now is     2472.7 secs

     total energy              =   -9215.83868737 Ry
     estimated scf accuracy    <       0.00018819 Ry

     total magnetization       =     0.00 Bohr mag/cell
     absolute magnetization    =   126.09 Bohr mag/cell

     iteration # 13     ecut=   100.00 Ry     beta= 0.20
     Davidson diagonalization with overlap
     ethr =  1.49E-08,  avg # of iterations =  3.0

     total cpu time spent up to now is     2688.6 secs

     total energy              =   -9215.83876394 Ry
     estimated scf accuracy    <       0.00031475 Ry

     total magnetization       =    -0.00 Bohr mag/cell
     absolute magnetization    =   126.27 Bohr mag/cell

     iteration # 14     ecut=   100.00 Ry     beta= 0.20
     Davidson diagonalization with overlap
     ethr =  1.49E-08,  avg # of iterations =  2.0

     total cpu time spent up to now is     2892.0 secs

     total energy              =   -9215.83883770 Ry
     estimated scf accuracy    <       0.00000428 Ry

     total magnetization       =    -0.00 Bohr mag/cell
     absolute magnetization    =   126.44 Bohr mag/cell

     iteration # 15     ecut=   100.00 Ry     beta= 0.20
     Davidson diagonalization with overlap
     ethr =  3.40E-10,  avg # of iterations =  4.0

     total cpu time spent up to now is     3118.7 secs

     total energy              =   -9215.83883957 Ry
     estimated scf accuracy    <       0.00000088 Ry

     total magnetization       =    -0.00 Bohr mag/cell
     absolute magnetization    =   126.45 Bohr mag/cell

     iteration # 16     ecut=   100.00 Ry     beta= 0.20
     Davidson diagonalization with overlap
     ethr =  6.97E-11,  avg # of iterations =  2.0

     total cpu time spent up to now is     3301.1 secs

     total energy              =   -9215.83883994 Ry
     estimated scf accuracy    <       0.00000049 Ry

     total magnetization       =    -0.00 Bohr mag/cell
     absolute magnetization    =   126.46 Bohr mag/cell

     iteration # 17     ecut=   100.00 Ry     beta= 0.20
     Davidson diagonalization with overlap
     ethr =  3.89E-11,  avg # of iterations =  2.0

     total cpu time spent up to now is     3515.8 secs

     total energy              =   -9215.83884012 Ry
     estimated scf accuracy    <       0.00000013 Ry

     total magnetization       =     0.00 Bohr mag/cell
     absolute magnetization    =   126.47 Bohr mag/cell

     iteration # 18     ecut=   100.00 Ry     beta= 0.20
     Davidson diagonalization with overlap
     ethr =  1.02E-11,  avg # of iterations =  4.0
 
     Magnetic moment per site  (integrated on atomic sphere of radius R)
     atom   1 (R=0.056)  charge=  3.9071  magn= -0.0400
     atom   2 (R=0.056)  charge=  3.9073  magn= -0.0399
     atom   3 (R=0.056)  charge=  3.9075  magn= -0.0400
     atom   4 (R=0.056)  charge= 12.3869  magn=  2.8653
     atom   5 (R=0.056)  charge= 12.3868  magn=  2.8655
     atom   6 (R=0.056)  charge=  3.9073  magn= -0.0401
     atom   7 (R=0.056)  charge=  3.9074  magn= -0.0401
     atom   8 (R=0.056)  charge=  3.9072  magn= -0.0401
     atom   9 (R=0.056)  charge=  3.9072  magn=  0.0402
     atom  10 (R=0.056)  charge=  3.9074  magn=  0.0401
     atom  11 (R=0.056)  charge=  3.9073  magn=  0.0401
     atom  12 (R=0.056)  charge= 12.3868  magn= -2.8653
     atom  13 (R=0.056)  charge= 12.3868  magn= -2.8655
     atom  14 (R=0.056)  charge=  3.9072  magn=  0.0400
     atom  15 (R=0.056)  charge=  3.9073  magn=  0.0399
     atom  16 (R=0.056)  charge=  3.9074  magn=  0.0400
     atom  17 (R=0.056)  charge=  3.9071  magn= -0.0400
     atom  18 (R=0.056)  charge=  3.9073  magn= -0.0399
     atom  19 (R=0.056)  charge=  3.9075  magn= -0.0400
     atom  20 (R=0.056)  charge= 12.3869  magn=  2.8653
     atom  21 (R=0.056)  charge= 12.3868  magn=  2.8655
     atom  22 (R=0.056)  charge=  3.9073  magn= -0.0401
     atom  23 (R=0.056)  charge=  3.9074  magn= -0.0401
     atom  24 (R=0.056)  charge=  3.9072  magn= -0.0401
     atom  25 (R=0.056)  charge=  3.9072  magn=  0.0402
     atom  26 (R=0.056)  charge=  3.9074  magn=  0.0401
     atom  27 (R=0.056)  charge=  3.9073  magn=  0.0401
     atom  28 (R=0.056)  charge= 12.3868  magn= -2.8653
     atom  29 (R=0.056)  charge= 12.3868  magn= -2.8655
     atom  30 (R=0.056)  charge=  3.9072  magn=  0.0400
     atom  31 (R=0.056)  charge=  3.9073  magn=  0.0399
     atom  32 (R=0.056)  charge=  3.9074  magn=  0.0400
     atom  33 (R=0.056)  charge=  3.9071  magn= -0.0400
     atom  34 (R=0.056)  charge=  3.9073  magn= -0.0399
     atom  35 (R=0.056)  charge=  3.9075  magn= -0.0400
     atom  36 (R=0.056)  charge= 12.3869  magn=  2.8653
     atom  37 (R=0.056)  charge= 12.3868  magn=  2.8655
     atom  38 (R=0.056)  charge=  3.9073  magn= -0.0401
     atom  39 (R=0.056)  charge=  3.9074  magn= -0.0401
     atom  40 (R=0.056)  charge=  3.9072  magn= -0.0401
     atom  41 (R=0.056)  charge=  3.9072  magn=  0.0402
     atom  42 (R=0.056)  charge=  3.9074  magn=  0.0401
     atom  43 (R=0.056)  charge=  3.9073  magn=  0.0401
     atom  44 (R=0.056)  charge= 12.3868  magn= -2.8653
     atom  45 (R=0.056)  charge= 12.3868  magn= -2.8655
     atom  46 (R=0.056)  charge=  3.9072  magn=  0.0400
     atom  47 (R=0.056)  charge=  3.9073  magn=  0.0399
     atom  48 (R=0.056)  charge=  3.9074  magn=  0.0400
     atom  49 (R=0.056)  charge=  3.9071  magn= -0.0400
     atom  50 (R=0.056)  charge=  3.9073  magn= -0.0399
     atom  51 (R=0.056)  charge=  3.9075  magn= -0.0400
     atom  52 (R=0.056)  charge= 12.3869  magn=  2.8653
     atom  53 (R=0.056)  charge= 12.3868  magn=  2.8655
     atom  54 (R=0.056)  charge=  3.9073  magn= -0.0401
     atom  55 (R=0.056)  charge=  3.9074  magn= -0.0401
     atom  56 (R=0.056)  charge=  3.9072  magn= -0.0401
     atom  57 (R=0.056)  charge=  3.9072  magn=  0.0402
     atom  58 (R=0.056)  charge=  3.9074  magn=  0.0401
     atom  59 (R=0.056)  charge=  3.9073  magn=  0.0401
     atom  60 (R=0.056)  charge= 12.3868  magn= -2.8653
     atom  61 (R=0.056)  charge= 12.3868  magn= -2.8655
     atom  62 (R=0.056)  charge=  3.9072  magn=  0.0400
     atom  63 (R=0.056)  charge=  3.9073  magn=  0.0399
     atom  64 (R=0.056)  charge=  3.9074  magn=  0.0400
     atom  65 (R=0.056)  charge=  3.9071  magn= -0.0400
     atom  66 (R=0.056)  charge=  3.9073  magn= -0.0399
     atom  67 (R=0.056)  charge=  3.9075  magn= -0.0400
     atom  68 (R=0.056)  charge= 12.3869  magn=  2.8653
     atom  69 (R=0.056)  charge= 12.3868  magn=  2.8655
     atom  70 (R=0.056)  charge=  3.9073  magn= -0.0401
     atom  71 (R=0.056)  charge=  3.9074  magn= -0.0401
     atom  72 (R=0.056)  charge=  3.9072  magn= -0.0401
     atom  73 (R=0.056)  charge=  3.9072  magn=  0.0402
     atom  74 (R=0.056)  charge=  3.9074  magn=  0.0401
     atom  75 (R=0.056)  charge=  3.9073  magn=  0.0401
     atom  76 (R=0.056)  charge= 12.3868  magn= -2.8653
     atom  77 (R=0.056)  charge= 12.3868  magn= -2.8655
     atom  78 (R=0.056)  charge=  3.9072  magn=  0.0400
     atom  79 (R=0.056)  charge=  3.9073  magn=  0.0399
     atom  80 (R=0.056)  charge=  3.9074  magn=  0.0400
     atom  81 (R=0.056)  charge=  3.9071  magn= -0.0400
     atom  82 (R=0.056)  charge=  3.9073  magn= -0.0399
     atom  83 (R=0.056)  charge=  3.9075  magn= -0.0400
     atom  84 (R=0.056)  charge= 12.3869  magn=  2.8653
     atom  85 (R=0.056)  charge= 12.3868  magn=  2.8655
     atom  86 (R=0.056)  charge=  3.9073  magn= -0.0401
     atom  87 (R=0.056)  charge=  3.9074  magn= -0.0401
     atom  88 (R=0.056)  charge=  3.9072  magn= -0.0401
     atom  89 (R=0.056)  charge=  3.9072  magn=  0.0402
     atom  90 (R=0.056)  charge=  3.9074  magn=  0.0401
     atom  91 (R=0.056)  charge=  3.9073  magn=  0.0401
     atom  92 (R=0.056)  charge= 12.3868  magn= -2.8653
     atom  93 (R=0.056)  charge= 12.3868  magn= -2.8655
     atom  94 (R=0.056)  charge=  3.9072  magn=  0.0400
     atom  95 (R=0.056)  charge=  3.9073  magn=  0.0399
     atom  96 (R=0.056)  charge=  3.9074  magn=  0.0400
     atom  97 (R=0.056)  charge=  3.9071  magn= -0.0400
     atom  98 (R=0.056)  charge=  3.9073  magn= -0.0399
     atom  99 (R=0.056)  charge=  3.9075  magn= -0.0400
     atom 100 (R=0.056)  charge= 12.3869  magn=  2.8653
     atom 101 (R=0.056)  charge= 12.3868  magn=  2.8655
     atom 102 (R=0.056)  charge=  3.9073  magn= -0.0401
     atom 103 (R=0.056)  charge=  3.9074  magn= -0.0401
     atom 104 (R=0.056)  charge=  3.9072  magn= -0.0401
     atom 105 (R=0.056)  charge=  3.9072  magn=  0.0402
     atom 106 (R=0.056)  charge=  3.9074  magn=  0.0401
     atom 107 (R=0.056)  charge=  3.9073  magn=  0.0401
     atom 108 (R=0.056)  charge= 12.3868  magn= -2.8653
     atom 109 (R=0.056)  charge= 12.3868  magn= -2.8655
     atom 110 (R=0.056)  charge=  3.9072  magn=  0.0400
     atom 111 (R=0.056)  charge=  3.9073  magn=  0.0399
     atom 112 (R=0.056)  charge=  3.9074  magn=  0.0400
     atom 113 (R=0.056)  charge=  3.9071  magn= -0.0400
     atom 114 (R=0.056)  charge=  3.9073  magn= -0.0399
     atom 115 (R=0.056)  charge=  3.9075  magn= -0.0400
     atom 116 (R=0.056)  charge= 12.3869  magn=  2.8653
     atom 117 (R=0.056)  charge= 12.3868  magn=  2.8655
     atom 118 (R=0.056)  charge=  3.9073  magn= -0.0401
     atom 119 (R=0.056)  charge=  3.9074  magn= -0.0401
     atom 120 (R=0.056)  charge=  3.9072  magn= -0.0401
     atom 121 (R=0.056)  charge=  3.9072  magn=  0.0402
     atom 122 (R=0.056)  charge=  3.9074  magn=  0.0401
     atom 123 (R=0.056)  charge=  3.9073  magn=  0.0401
     atom 124 (R=0.056)  charge= 12.3868  magn= -2.8653
     atom 125 (R=0.056)  charge= 12.3868  magn= -2.8655
     atom 126 (R=0.056)  charge=  3.9072  magn=  0.0400
     atom 127 (R=0.056)  charge=  3.9073  magn=  0.0399
     atom 128 (R=0.056)  charge=  3.9074  magn=  0.0400
     atom 129 (R=0.056)  charge=  3.9071  magn= -0.0400
     atom 130 (R=0.056)  charge=  3.9073  magn= -0.0399
     atom 131 (R=0.056)  charge=  3.9075  magn= -0.0400
     atom 132 (R=0.056)  charge= 12.3869  magn=  2.8653
     atom 133 (R=0.056)  charge= 12.3868  magn=  2.8655
     atom 134 (R=0.056)  charge=  3.9073  magn= -0.0401
     atom 135 (R=0.056)  charge=  3.9074  magn= -0.0401
     atom 136 (R=0.056)  charge=  3.9072  magn= -0.0401
     atom 137 (R=0.056)  charge=  3.9072  magn=  0.0402
     atom 138 (R=0.056)  charge=  3.9074  magn=  0.0401
     atom 139 (R=0.056)  charge=  3.9073  magn=  0.0401
     atom 140 (R=0.056)  charge= 12.3868  magn= -2.8653
     atom 141 (R=0.056)  charge= 12.3868  magn= -2.8655
     atom 142 (R=0.056)  charge=  3.9072  magn=  0.0400
     atom 143 (R=0.056)  charge=  3.9073  magn=  0.0399
     atom 144 (R=0.056)  charge=  3.9074  magn=  0.0400

     total cpu time spent up to now is     3717.1 secs

     End of self-consistent calculation

 ------ SPIN UP ------------


          k = 0.0000 0.0000 0.0000 (****** PWs)   bands (ev):

   -73.5262 -73.5262 -73.5262 -73.5261 -73.5261 -73.5261 -73.5261 -73.5261
   -73.5261 -73.5258 -73.5258 -73.5258 -73.5258 -73.5258 -73.5257 -73.5257
   -73.5257 -73.5257 -70.4330 -70.4329 -70.4329 -70.4329 -70.4329 -70.4328
   -70.4328 -70.4327 -70.4327 -70.4327 -70.4327 -70.4325 -70.4325 -70.4325
   -70.4325 -70.4325 -70.4325 -70.4324 -44.9454 -44.9450 -44.9450 -44.9450
   -44.9450 -44.9450 -44.9450 -44.9446 -44.9445 -44.9443 -44.9443 -44.9439
   -44.9439 -44.9439 -44.9439 -44.9439 -44.9439 -44.9435 -44.9389 -44.9389
   -44.9387 -44.9387 -44.9386 -44.9386 -44.9386 -44.9386 -44.9384 -44.9383
   -44.9374 -44.9374 -44.9374 -44.9374 -44.9374 -44.9374 -44.9358 -44.9358
   -44.9355 -44.9355 -44.9339 -44.9339 -44.9339 -44.9339 -44.9339 -44.9339
   -44.9330 -44.9329 -44.9327 -44.9327 -44.9326 -44.9326 -44.9326 -44.9326
   -44.9324 -44.9324 -41.8517 -41.8512 -41.8512 -41.8512 -41.8512 -41.8512
   -41.8512 -41.8504 -41.8504 -41.8504 -41.8504 -41.8497 -41.8497 -41.8497
   -41.8497 -41.8497 -41.8497 -41.8491 -41.7892 -41.7892 -41.7888 -41.7888
   -41.7888 -41.7888 -41.7888 -41.7888 -41.7883 -41.7883 -41.7872 -41.7872
   -41.7872 -41.7872 -41.7872 -41.7872 -41.7849 -41.7849 -41.7849 -41.7849
   -41.7827 -41.7827 -41.7827 -41.7827 -41.7827 -41.7827 -41.7815 -41.7815
   -41.7811 -41.7811 -41.7811 -41.7811 -41.7811 -41.7811 -41.7807 -41.7807
   -14.3558 -14.3409 -14.0592 -14.0592 -14.0590 -14.0590 -14.0590 -14.0590
   -14.0505 -14.0505 -14.0504 -14.0504 -14.0504 -14.0503 -13.6339 -13.6339
   -13.6331 -13.6331 -13.6329 -13.6329 -13.6321 -13.6321 -13.5012 -13.4697
   -13.3595 -13.3595 -13.3466 -13.3466 -13.3466 -13.3466 -13.3464 -13.3464
   -13.3314 -13.3314 -13.3297 -13.3297 -13.3296 -13.3296 -13.3294 -13.3294
   -13.3214 -13.3214 -13.3213 -13.3213 -13.3213 -13.3213 -13.2904 -13.2904
   -13.2903 -13.2903 -13.2903 -13.2903 -13.0942 -13.0942 -13.0932 -13.0932
   -13.0929 -13.0929 -13.0929 -13.0929 -13.0928 -13.0928 -13.0636 -13.0636
   -13.0626 -13.0626 -13.0621 -13.0621 -13.0621 -13.0621 -13.0620 -13.0620
   -13.0406 -13.0406 -13.0137 -13.0137 -12.9893 -12.9893 -12.9893 -12.9893
   -12.9892 -12.9892 -12.9601 -12.9601 -12.9601 -12.9601 -12.9600 -12.9600
   -12.9598 -12.9597 -12.9597 -12.9597 -12.9596 -12.9596 -12.9542 -12.9540
   -12.9352 -12.9352 -12.9352 -12.9352 -12.9351 -12.9351 -12.9238 -12.9236
   -12.9183 -12.9181 -12.8899 -12.8897  -5.9523  -5.9523  -5.9523  -5.9523
    -5.9522  -5.9522  -5.8027  -5.7002  -5.7002  -5.7002  -5.7002  -5.7002
    -5.7001  -5.5011  -5.4885  -5.4122  -5.4122  -5.4115  -5.4115  -5.3067
    -5.3067  -5.3059  -5.3059  -5.3059  -5.3059  -5.2271  -5.1570  -5.1570
    -5.1563  -5.1563  -5.0840  -5.0840  -5.0836  -5.0835  -5.0835  -5.0835
    -5.0634  -5.0634  -5.0453  -5.0452  -5.0445  -5.0445  -5.0445  -5.0445
    -5.0069  -5.0069  -5.0064  -5.0064  -5.0064  -5.0064  -4.9313  -4.9313
    -4.9313  -4.9313  -4.9310  -4.9310  -4.9145  -4.9125  -4.8704  -4.8685
    -4.8113  -4.8113  -4.8112  -4.8112  -4.8109  -4.8109  -4.8103  -4.8103
    -4.8102  -4.8102  -4.7782  -4.7782  -4.7106  -4.7106  -4.7106  -4.7106
    -4.7103  -4.7103  -4.7098  -4.7077  -4.6570  -4.6570  -4.6568  -4.6568
    -4.6197  -4.6175  -4.5338  -4.5338  -4.5337  -4.5337  -4.5334  -4.5334
    -4.4168  -4.4168  -4.3254  -4.3254  -4.3251  -4.3251  -4.3200  -4.2837
    -4.2586  -4.2387  -4.2387  -4.2386  -4.2386  -4.2384  -4.2384  -4.2151
    -4.2151  -4.2149  -4.2149  -4.2149  -4.2148  -4.2020  -4.2020  -4.0557
    -3.9392  -3.9392  -3.9392  -3.9391  -3.9390  -3.9390  -3.9178  -3.9178
    -3.9175  -3.9175  -3.8776  -3.8776  -3.8776  -3.8776  -3.8765  -3.8765
    -3.8560  -3.8560  -3.8560  -3.8560  -3.8560  -3.8560  -3.7982  -3.7982
    -3.7980  -3.7980  -3.7980  -3.7980  -3.7902  -3.7890  -3.7879  -3.7879
    -3.7657  -3.7657  -3.6469  -3.6469  -3.6469  -3.6469  -3.6465  -3.6465
    -3.5729  -3.5729  -3.4940  -3.4936  -3.4394  -3.4394  -3.4394  -3.4394
    -3.4385  -3.4385  -3.3517  -3.3517  -3.3517  -3.3517  -3.3513  -3.3513
    -3.3347  -3.2873  -3.2240  -3.2240  -3.2229  -3.2229  -3.2229  -3.2229
    -3.1903  -3.1889  -3.1575  -3.1575  -3.1570  -3.1569  -3.1567  -3.1567
    -3.1533  -3.1533  -3.1525  -3.1524  -3.1516  -3.1516  -3.1500  -3.1500
    -3.0796  -3.0796  -3.0787  -3.0787  -3.0787  -3.0787  -3.0635  -3.0628
    -3.0207  -3.0207  -3.0207  -3.0207  -3.0200  -3.0199  -2.9539  -2.9539
    -2.9522  -2.9522  -2.8599  -2.8599  -2.8167  -2.8167  -2.8166  -2.8166
    -2.8164  -2.8164  -2.7923  -2.7923  -2.7914  -2.7914  -2.7914  -2.7914
    -2.6894  -2.6894  -2.6889  -2.6889  -2.6691  -2.6691  -2.6673  -2.6673
    -2.6340  -2.6340  -2.6338  -2.6338  -2.6338  -2.6338  -2.6305  -2.6305
    -2.6298  -2.6298  -2.6295  -2.6295  -2.6068  -2.6068  -2.6064  -2.6064
    -2.6061  -2.6060  -2.4894  -2.4894  -2.4448  -2.4448  -2.4446  -2.4446
    -2.4445  -2.4445  -2.3496  -2.3496  -2.3409  -2.3163  -2.3161  -2.3002
    -2.2311  -2.2311  -2.2307  -2.2307  -2.2305  -2.2305  -2.2060  -2.2060
    -2.2054  -2.2054  -2.1636  -2.1636  -2.1069  -2.0567  -2.0567  -2.0561
    -2.0561  -2.0380  -2.0380  -2.0379  -2.0379  -2.0379  -2.0379  -1.8926
    -1.8926  -1.8925  -1.8925  -1.8924  -1.8924  -1.8860  -1.8860  -1.8857
    -1.8857  -1.8854  -1.8854  -1.8467  -1.8467  -1.8467  -1.8466  -1.8463
    -1.8463  -1.8046  -1.7408  -1.7408  -1.7084  -1.7084  -1.7084  -1.7084
    -1.7076  -1.7076  -1.7061  -1.7055  -1.6705  -1.6705  -1.6702  -1.6702
    -1.6702  -1.6702  -1.6589  -1.6589  -1.6436  -1.6436  -1.6431  -1.6431
    -1.6184  -1.6175  -1.5324  -1.5324  -1.5323  -1.5323  -1.5313  -1.5313
    -1.5216  -1.5206  -1.4901  -1.4901  -1.4892  -1.4892  -1.4891  -1.4891
    -1.3814  -1.3814  -1.3807  -1.3807  -1.3736  -1.3736  -1.3736  -1.3736
    -1.3735  -1.3735  -1.2876  -1.2876  -1.2875  -1.2875  -1.2875  -1.2874
    -1.1661  -1.1661  -1.1651  -1.1651  -0.9891  -0.9891  -0.9890  -0.9890
    -0.9890  -0.9890  -0.9140  -0.9135  -0.8448  -0.8446   0.3417   0.3417
     0.3424   0.3424   0.3424   0.3425   0.3633   0.3641   0.4620   0.4620
     0.4841   0.4841   0.4843   0.4843   0.4855   0.4855   0.5938   0.5938
     0.5938   0.5938   0.5941   0.5941   0.6367   0.6367   0.6373   0.6373
     0.6849   0.6849   0.6857   0.6857   0.6858   0.6858   0.8032   0.8032
     0.8046   0.8046   0.8387   0.8387   0.8459   0.8459   0.8459   0.8459
     0.8463   0.8463   0.8681   0.8681   0.9314   0.9314   0.9316   0.9316
     0.9316   0.9316   0.9350   0.9361   0.9713   0.9714   1.0755   1.1252
     1.2412   1.2412   1.2413   1.2413   1.2413   1.2413   1.3242   1.3242
     1.3318   1.3318   1.3318   1.3318   1.3321   1.3321   1.3820   1.3820
     1.3820   1.3820   1.3821   1.3822   1.4872   1.4877   1.5297   1.5297
     1.5299   1.5299   1.5402   1.5402   1.5406   1.5406   1.5407   1.5407
     1.6718   1.6718   1.6725   1.6725   1.6726   1.6726   1.7683   1.7688
     1.7840   1.7840   1.7841   1.7842   1.7849   1.7849   1.8946   1.8946
     1.9981   1.9981   1.9984   1.9984   2.0029   2.0029   2.0030   2.0030
     2.0030   2.0030   2.0573   2.0573   2.0577   2.0577   2.0577   2.0577
     2.1035   2.1035   2.1855   2.1862

          k =-0.0000-0.5774 0.0000 (****** PWs)   bands (ev):

   -73.5262 -73.5262 -73.5262 -73.5261 -73.5261 -73.5261 -73.5261 -73.5261
   -73.5261 -73.5258 -73.5258 -73.5258 -73.5258 -73.5258 -73.5257 -73.5257
   -73.5257 -73.5257 -70.4329 -70.4329 -70.4329 -70.4329 -70.4328 -70.4328
   -70.4328 -70.4328 -70.4328 -70.4326 -70.4326 -70.4326 -70.4326 -70.4326
   -70.4325 -70.4325 -70.4324 -70.4324 -44.9453 -44.9453 -44.9451 -44.9451
   -44.9448 -44.9448 -44.9448 -44.9448 -44.9448 -44.9441 -44.9441 -44.9441
   -44.9441 -44.9441 -44.9438 -44.9438 -44.9436 -44.9436 -44.9389 -44.9388
   -44.9388 -44.9388 -44.9387 -44.9387 -44.9386 -44.9384 -44.9384 -44.9381
   -44.9381 -44.9375 -44.9375 -44.9370 -44.9368 -44.9368 -44.9367 -44.9367
   -44.9346 -44.9346 -44.9345 -44.9345 -44.9344 -44.9338 -44.9338 -44.9333
   -44.9333 -44.9328 -44.9328 -44.9327 -44.9327 -44.9325 -44.9325 -44.9325
   -44.9325 -44.9325 -41.8516 -41.8515 -41.8513 -41.8513 -41.8509 -41.8509
   -41.8509 -41.8509 -41.8508 -41.8500 -41.8500 -41.8500 -41.8500 -41.8500
   -41.8496 -41.8496 -41.8493 -41.8493 -41.7890 -41.7890 -41.7890 -41.7890
   -41.7889 -41.7887 -41.7887 -41.7885 -41.7885 -41.7880 -41.7880 -41.7873
   -41.7873 -41.7866 -41.7863 -41.7863 -41.7863 -41.7863 -41.7836 -41.7836
   -41.7835 -41.7835 -41.7833 -41.7825 -41.7825 -41.7819 -41.7819 -41.7814
   -41.7814 -41.7811 -41.7811 -41.7810 -41.7809 -41.7809 -41.7809 -41.7809
   -14.2776 -14.2775 -14.2643 -14.2643 -14.1286 -14.1286 -14.1186 -14.1186
   -13.8691 -13.8691 -13.8688 -13.8688 -13.8643 -13.8643 -13.8640 -13.8640
   -13.8236 -13.8172 -13.6069 -13.5948 -13.4894 -13.4894 -13.4889 -13.4889
   -13.4785 -13.4785 -13.4780 -13.4780 -13.4528 -13.4528 -13.4214 -13.4214
   -13.3630 -13.3630 -13.3318 -13.3318 -13.2248 -13.2248 -13.2247 -13.2247
   -13.2195 -13.2195 -13.2126 -13.2126 -13.2124 -13.2124 -13.1999 -13.1999
   -13.1978 -13.1978 -13.1978 -13.1978 -13.1818 -13.1818 -13.1815 -13.1815
   -13.1661 -13.1367 -13.1367 -13.1343 -13.1269 -13.1215 -13.1080 -13.1080
   -13.0971 -13.0919 -13.0748 -13.0748 -13.0503 -13.0503 -13.0500 -13.0500
   -13.0485 -13.0485 -13.0210 -13.0210 -13.0207 -13.0207 -13.0171 -13.0171
   -12.9868 -12.9867 -12.9810 -12.9810 -12.9808 -12.9808 -12.9799 -12.9564
   -12.9542 -12.9542 -12.9540 -12.9540 -12.9538 -12.9538 -12.9398 -12.9398
   -12.9260 -12.9260 -12.9219 -12.9219 -12.9132 -12.9132 -12.9119 -12.9119
   -12.8949 -12.8949 -12.8843 -12.8843  -6.0107  -5.8560  -5.8560  -5.8348
    -5.8348  -5.8129  -5.8129  -5.8128  -5.8128  -5.7616  -5.5840  -5.5840
    -5.5780  -5.5780  -5.5625  -5.5625  -5.5624  -5.5623  -5.4657  -5.4657
    -5.4626  -5.4626  -5.2697  -5.2697  -5.2689  -5.2689  -5.2072  -5.2072
    -5.2065  -5.2065  -5.1384  -5.1226  -5.0782  -5.0511  -5.0511  -5.0505
    -5.0505  -5.0439  -5.0439  -5.0081  -5.0081  -5.0072  -5.0072  -5.0060
    -5.0060  -5.0033  -5.0033  -4.9923  -4.9923  -4.9448  -4.9448  -4.9444
    -4.9444  -4.9331  -4.9331  -4.9118  -4.9118  -4.9115  -4.9115  -4.8953
    -4.8953  -4.8782  -4.8782  -4.8561  -4.8561  -4.8540  -4.8180  -4.8179
    -4.7867  -4.7836  -4.7836  -4.7207  -4.7207  -4.6791  -4.6791  -4.6790
    -4.6790  -4.6533  -4.6533  -4.6186  -4.6185  -4.6180  -4.6180  -4.5906
    -4.5906  -4.5044  -4.5044  -4.5044  -4.5044  -4.4502  -4.4457  -4.4182
    -4.3842  -4.3842  -4.3657  -4.3657  -4.3651  -4.3651  -4.2876  -4.2755
    -4.2755  -4.2487  -4.2461  -4.2461  -4.2458  -4.2458  -4.2329  -4.2035
    -4.2035  -4.2032  -4.2032  -4.1682  -4.1682  -4.1545  -4.1545  -3.9804
    -3.9804  -3.9743  -3.9743  -3.9173  -3.9173  -3.9168  -3.9168  -3.9115
    -3.9115  -3.9050  -3.8886  -3.8886  -3.8854  -3.8854  -3.8689  -3.8689
    -3.8687  -3.8687  -3.8338  -3.8134  -3.8134  -3.8130  -3.8130  -3.7818
    -3.7818  -3.7457  -3.7457  -3.6932  -3.6932  -3.6772  -3.6771  -3.6770
    -3.6770  -3.6540  -3.6305  -3.6305  -3.6214  -3.6119  -3.5983  -3.5983
    -3.5372  -3.5372  -3.4891  -3.4891  -3.4884  -3.4884  -3.4796  -3.4733
    -3.4733  -3.4043  -3.4043  -3.4042  -3.4042  -3.3738  -3.3738  -3.3600
    -3.3600  -3.3514  -3.3514  -3.3508  -3.3508  -3.3459  -3.3459  -3.3130
    -3.3130  -3.3010  -3.2978  -3.2978  -3.2842  -3.2842  -3.2763  -3.2357
    -3.2357  -3.2348  -3.2348  -3.2039  -3.2039  -3.2002  -3.1868  -3.1867
    -3.1580  -3.1580  -3.0919  -3.0919  -3.0907  -3.0907  -3.0898  -3.0897
    -3.0847  -3.0847  -3.0572  -3.0330  -3.0254  -3.0254  -3.0138  -2.9784
    -2.9783  -2.9322  -2.9322  -2.9315  -2.9315  -2.8883  -2.8883  -2.8878
    -2.8878  -2.8765  -2.8765  -2.8535  -2.8535  -2.8527  -2.8527  -2.8005
    -2.8005  -2.7104  -2.7104  -2.6692  -2.6692  -2.6688  -2.6687  -2.5387
    -2.5387  -2.5318  -2.5317  -2.5308  -2.5308  -2.5243  -2.5086  -2.5086
    -2.5072  -2.5072  -2.5066  -2.5066  -2.4937  -2.4937  -2.4739  -2.4739
    -2.4732  -2.4329  -2.3892  -2.3892  -2.3889  -2.3889  -2.3682  -2.3416
    -2.3415  -2.3406  -2.3406  -2.3280  -2.3280  -2.3177  -2.2960  -2.2596
    -2.2596  -2.2040  -2.2040  -2.2036  -2.2036  -2.1788  -2.1660  -2.1660
    -2.1585  -2.1585  -2.1584  -2.1584  -2.1348  -2.1348  -2.0938  -2.0938
    -2.0789  -2.0789  -2.0782  -2.0782  -2.0198  -2.0058  -2.0058  -2.0055
    -2.0055  -2.0015  -1.9716  -1.9716  -1.9513  -1.9513  -1.9230  -1.9230
    -1.8672  -1.8521  -1.8521  -1.8482  -1.8482  -1.7899  -1.7899  -1.7767
    -1.7767  -1.7484  -1.7484  -1.7483  -1.7483  -1.7403  -1.7135  -1.7110
    -1.7110  -1.7107  -1.7107  -1.7010  -1.7010  -1.6959  -1.6959  -1.6950
    -1.6950  -1.6874  -1.6874  -1.6620  -1.6620  -1.6494  -1.6494  -1.5743
    -1.5743  -1.5561  -1.5104  -1.5104  -1.5100  -1.5100  -1.5001  -1.5001
    -1.4871  -1.4871  -1.4712  -1.4712  -1.4479  -1.4479  -1.4477  -1.4477
    -1.4084  -1.3847  -1.3847  -1.3794  -1.3794  -1.3788  -1.3787  -1.3747
    -1.3555  -1.3555  -1.3411  -1.3255  -1.3255  -1.3255  -1.3255  -1.2713
    -1.2713  -1.0942  -1.0942  -1.0887  -1.0883  -1.0883  -1.0522  -1.0522
    -1.0518  -1.0518  -0.9202  -0.9202  -0.8676  -0.8675   0.2828   0.2828
     0.3310   0.3589   0.3589   0.4018   0.4018   0.4138   0.4138   0.4140
     0.4140   0.4926   0.4926   0.4927   0.4927   0.5109   0.5109   0.5202
     0.5202   0.5540   0.5677   0.6758   0.6838   0.6838   0.6854   0.6854
     0.6857   0.6857   0.7122   0.7156   0.7156   0.7156   0.7156   0.7764
     0.7764   0.7769   0.7770   0.8324   0.8324   0.8396   0.8396   0.8400
     0.8400   0.8621   0.8731   0.8731   0.9387   0.9387   0.9470   0.9470
     0.9710   0.9710   1.0856   1.0856   1.0856   1.0856   1.0859   1.0859
     1.0884   1.0884   1.1089   1.1089   1.2541   1.2651   1.2959   1.2959
     1.3044   1.3044   1.3047   1.3047   1.3855   1.3855   1.4195   1.4301
     1.4301   1.4466   1.4466   1.4479   1.4479   1.4677   1.4677   1.4679
     1.4679   1.4679   1.4679   1.5156   1.5478   1.5478   1.5481   1.5481
     1.6580   1.6580   1.6817   1.7439   1.7439   1.7623   1.7623   1.7628
     1.7628   1.7697   1.7697   1.8524   1.8524   1.8945   1.8945   1.8946
     1.8946   1.9009   1.9413   1.9413   2.0083   2.0083   2.0083   2.0083
     2.0143   2.0143   2.0436   2.0729   2.0944   2.0944   2.0946   2.0946
     2.1057   2.1057   2.1334   2.1334

          k =-0.5000-0.2887 0.0000 (****** PWs)   bands (ev):

   -73.5262 -73.5262 -73.5262 -73.5261 -73.5261 -73.5261 -73.5261 -73.5261
   -73.5261 -73.5258 -73.5258 -73.5258 -73.5258 -73.5258 -73.5257 -73.5257
   -73.5257 -73.5257 -70.4329 -70.4329 -70.4329 -70.4329 -70.4328 -70.4328
   -70.4328 -70.4328 -70.4328 -70.4326 -70.4326 -70.4326 -70.4326 -70.4326
   -70.4325 -70.4325 -70.4324 -70.4324 -44.9453 -44.9453 -44.9451 -44.9451
   -44.9448 -44.9448 -44.9448 -44.9448 -44.9447 -44.9441 -44.9441 -44.9441
   -44.9441 -44.9441 -44.9438 -44.9438 -44.9436 -44.9436 -44.9389 -44.9388
   -44.9388 -44.9388 -44.9387 -44.9386 -44.9386 -44.9384 -44.9384 -44.9381
   -44.9381 -44.9375 -44.9375 -44.9370 -44.9368 -44.9368 -44.9367 -44.9367
   -44.9346 -44.9346 -44.9345 -44.9345 -44.9344 -44.9338 -44.9338 -44.9333
   -44.9333 -44.9329 -44.9328 -44.9327 -44.9327 -44.9325 -44.9325 -44.9325
   -44.9325 -44.9325 -41.8516 -41.8515 -41.8513 -41.8513 -41.8509 -41.8509
   -41.8508 -41.8508 -41.8508 -41.8500 -41.8500 -41.8500 -41.8500 -41.8500
   -41.8496 -41.8496 -41.8493 -41.8493 -41.7890 -41.7890 -41.7890 -41.7890
   -41.7889 -41.7887 -41.7887 -41.7885 -41.7885 -41.7880 -41.7880 -41.7873
   -41.7873 -41.7866 -41.7863 -41.7863 -41.7863 -41.7863 -41.7836 -41.7836
   -41.7835 -41.7835 -41.7833 -41.7825 -41.7825 -41.7819 -41.7819 -41.7814
   -41.7814 -41.7811 -41.7811 -41.7810 -41.7809 -41.7809 -41.7809 -41.7809
   -14.2776 -14.2775 -14.2643 -14.2643 -14.1286 -14.1286 -14.1186 -14.1186
   -13.8691 -13.8691 -13.8688 -13.8688 -13.8643 -13.8643 -13.8640 -13.8640
   -13.8236 -13.8172 -13.6069 -13.5948 -13.4894 -13.4894 -13.4889 -13.4889
   -13.4785 -13.4785 -13.4780 -13.4780 -13.4528 -13.4528 -13.4214 -13.4214
   -13.3630 -13.3630 -13.3318 -13.3318 -13.2247 -13.2247 -13.2247 -13.2247
   -13.2195 -13.2195 -13.2126 -13.2126 -13.2124 -13.2124 -13.1999 -13.1999
   -13.1979 -13.1979 -13.1978 -13.1978 -13.1817 -13.1817 -13.1815 -13.1815
   -13.1661 -13.1367 -13.1367 -13.1343 -13.1268 -13.1216 -13.1080 -13.1080
   -13.0970 -13.0920 -13.0748 -13.0748 -13.0503 -13.0503 -13.0500 -13.0500
   -13.0485 -13.0485 -13.0210 -13.0210 -13.0207 -13.0207 -13.0171 -13.0171
   -12.9868 -12.9867 -12.9810 -12.9810 -12.9808 -12.9808 -12.9799 -12.9565
   -12.9542 -12.9542 -12.9540 -12.9540 -12.9538 -12.9538 -12.9398 -12.9398
   -12.9260 -12.9260 -12.9220 -12.9219 -12.9131 -12.9131 -12.9119 -12.9119
   -12.8949 -12.8949 -12.8843 -12.8843  -6.0107  -5.8560  -5.8560  -5.8349
    -5.8348  -5.8129  -5.8129  -5.8128  -5.8127  -5.7616  -5.5840  -5.5840
    -5.5780  -5.5780  -5.5625  -5.5625  -5.5624  -5.5623  -5.4657  -5.4657
    -5.4626  -5.4626  -5.2698  -5.2698  -5.2689  -5.2689  -5.2072  -5.2072
    -5.2065  -5.2065  -5.1384  -5.1225  -5.0782  -5.0511  -5.0511  -5.0505
    -5.0504  -5.0440  -5.0440  -5.0082  -5.0082  -5.0073  -5.0072  -5.0059
    -5.0059  -5.0032  -5.0032  -4.9923  -4.9923  -4.9448  -4.9448  -4.9444
    -4.9444  -4.9331  -4.9331  -4.9119  -4.9119  -4.9115  -4.9115  -4.8953
    -4.8952  -4.8782  -4.8782  -4.8562  -4.8562  -4.8540  -4.8180  -4.8180
    -4.7865  -4.7835  -4.7835  -4.7207  -4.7207  -4.6792  -4.6792  -4.6790
    -4.6790  -4.6533  -4.6533  -4.6186  -4.6186  -4.6180  -4.6180  -4.5906
    -4.5906  -4.5044  -4.5044  -4.5044  -4.5044  -4.4501  -4.4458  -4.4181
    -4.3842  -4.3842  -4.3657  -4.3657  -4.3651  -4.3651  -4.2877  -4.2755
    -4.2755  -4.2486  -4.2461  -4.2461  -4.2458  -4.2458  -4.2330  -4.2035
    -4.2035  -4.2032  -4.2032  -4.1682  -4.1682  -4.1545  -4.1545  -3.9804
    -3.9804  -3.9744  -3.9744  -3.9173  -3.9173  -3.9168  -3.9168  -3.9115
    -3.9115  -3.9051  -3.8886  -3.8886  -3.8854  -3.8854  -3.8689  -3.8689
    -3.8687  -3.8687  -3.8339  -3.8134  -3.8134  -3.8130  -3.8130  -3.7818
    -3.7818  -3.7457  -3.7457  -3.6933  -3.6933  -3.6772  -3.6772  -3.6770
    -3.6770  -3.6540  -3.6304  -3.6304  -3.6213  -3.6119  -3.5983  -3.5983
    -3.5372  -3.5372  -3.4891  -3.4891  -3.4884  -3.4884  -3.4797  -3.4733
    -3.4733  -3.4042  -3.4042  -3.4042  -3.4042  -3.3739  -3.3739  -3.3599
    -3.3598  -3.3513  -3.3513  -3.3507  -3.3507  -3.3459  -3.3459  -3.3129
    -3.3129  -3.3011  -3.2978  -3.2978  -3.2843  -3.2843  -3.2763  -3.2357
    -3.2357  -3.2348  -3.2348  -3.2038  -3.2038  -3.2003  -3.1868  -3.1867
    -3.1581  -3.1581  -3.0919  -3.0919  -3.0907  -3.0907  -3.0898  -3.0898
    -3.0847  -3.0847  -3.0570  -3.0332  -3.0254  -3.0254  -3.0138  -2.9783
    -2.9783  -2.9322  -2.9322  -2.9316  -2.9316  -2.8883  -2.8883  -2.8877
    -2.8877  -2.8765  -2.8765  -2.8536  -2.8535  -2.8528  -2.8528  -2.8006
    -2.8006  -2.7103  -2.7103  -2.6693  -2.6693  -2.6687  -2.6687  -2.5387
    -2.5387  -2.5318  -2.5318  -2.5309  -2.5309  -2.5243  -2.5086  -2.5086
    -2.5072  -2.5072  -2.5064  -2.5064  -2.4936  -2.4936  -2.4738  -2.4738
    -2.4732  -2.4328  -2.3892  -2.3892  -2.3888  -2.3888  -2.3681  -2.3416
    -2.3415  -2.3407  -2.3406  -2.3279  -2.3279  -2.3181  -2.2960  -2.2598
    -2.2598  -2.2040  -2.2040  -2.2036  -2.2036  -2.1788  -2.1661  -2.1661
    -2.1585  -2.1585  -2.1584  -2.1584  -2.1348  -2.1348  -2.0937  -2.0937
    -2.0788  -2.0788  -2.0781  -2.0781  -2.0197  -2.0060  -2.0060  -2.0056
    -2.0056  -2.0013  -1.9713  -1.9713  -1.9514  -1.9514  -1.9232  -1.9232
    -1.8672  -1.8520  -1.8520  -1.8483  -1.8483  -1.7898  -1.7898  -1.7767
    -1.7767  -1.7484  -1.7484  -1.7482  -1.7482  -1.7403  -1.7134  -1.7111
    -1.7111  -1.7108  -1.7108  -1.7011  -1.7011  -1.6959  -1.6959  -1.6949
    -1.6949  -1.6874  -1.6874  -1.6620  -1.6620  -1.6494  -1.6494  -1.5742
    -1.5742  -1.5560  -1.5104  -1.5104  -1.5100  -1.5100  -1.5001  -1.5001
    -1.4871  -1.4871  -1.4712  -1.4712  -1.4480  -1.4480  -1.4478  -1.4478
    -1.4079  -1.3848  -1.3848  -1.3793  -1.3793  -1.3786  -1.3786  -1.3752
    -1.3555  -1.3555  -1.3413  -1.3255  -1.3255  -1.3254  -1.3254  -1.2713
    -1.2713  -1.0942  -1.0942  -1.0886  -1.0884  -1.0883  -1.0522  -1.0522
    -1.0518  -1.0518  -0.9202  -0.9202  -0.8676  -0.8676   0.2828   0.2828
     0.3309   0.3589   0.3589   0.4019   0.4019   0.4139   0.4139   0.4141
     0.4141   0.4926   0.4926   0.4927   0.4927   0.5108   0.5108   0.5202
     0.5202   0.5541   0.5676   0.6756   0.6838   0.6839   0.6854   0.6854
     0.6856   0.6857   0.7124   0.7156   0.7156   0.7156   0.7156   0.7764
     0.7764   0.7769   0.7769   0.8325   0.8325   0.8396   0.8396   0.8399
     0.8400   0.8621   0.8730   0.8731   0.9387   0.9387   0.9470   0.9470
     0.9710   0.9710   1.0856   1.0856   1.0856   1.0856   1.0859   1.0859
     1.0884   1.0884   1.1089   1.1089   1.2541   1.2652   1.2959   1.2959
     1.3044   1.3044   1.3047   1.3047   1.3854   1.3854   1.4195   1.4301
     1.4301   1.4466   1.4466   1.4479   1.4480   1.4677   1.4677   1.4679
     1.4679   1.4679   1.4680   1.5155   1.5478   1.5478   1.5481   1.5481
     1.6580   1.6580   1.6817   1.7438   1.7438   1.7624   1.7624   1.7629
     1.7629   1.7698   1.7698   1.8524   1.8524   1.8944   1.8944   1.8945
     1.8945   1.9010   1.9414   1.9414   2.0082   2.0082   2.0083   2.0083
     2.0143   2.0143   2.0436   2.0730   2.0944   2.0944   2.0946   2.0946
     2.1058   2.1058   2.1333   2.1333

          k =-0.5000-0.8661 0.0000 (****** PWs)   bands (ev):

   -73.5262 -73.5262 -73.5262 -73.5261 -73.5261 -73.5261 -73.5261 -73.5261
   -73.5261 -73.5258 -73.5258 -73.5258 -73.5258 -73.5258 -73.5257 -73.5257
   -73.5257 -73.5257 -70.4329 -70.4329 -70.4329 -70.4329 -70.4328 -70.4328
   -70.4328 -70.4328 -70.4328 -70.4326 -70.4326 -70.4326 -70.4326 -70.4326
   -70.4325 -70.4325 -70.4324 -70.4324 -44.9453 -44.9453 -44.9451 -44.9451
   -44.9448 -44.9448 -44.9448 -44.9448 -44.9447 -44.9441 -44.9441 -44.9441
   -44.9441 -44.9441 -44.9438 -44.9438 -44.9436 -44.9436 -44.9388 -44.9388
   -44.9388 -44.9388 -44.9388 -44.9386 -44.9386 -44.9385 -44.9385 -44.9380
   -44.9380 -44.9376 -44.9376 -44.9369 -44.9367 -44.9367 -44.9367 -44.9367
   -44.9346 -44.9346 -44.9346 -44.9346 -44.9343 -44.9338 -44.9338 -44.9332
   -44.9332 -44.9329 -44.9329 -44.9327 -44.9326 -44.9326 -44.9325 -44.9325
   -44.9325 -44.9325 -41.8516 -41.8516 -41.8513 -41.8513 -41.8509 -41.8509
   -41.8508 -41.8508 -41.8508 -41.8500 -41.8500 -41.8500 -41.8500 -41.8500
   -41.8496 -41.8496 -41.8493 -41.8493 -41.7890 -41.7890 -41.7890 -41.7890
   -41.7889 -41.7887 -41.7887 -41.7885 -41.7885 -41.7880 -41.7880 -41.7873
   -41.7873 -41.7866 -41.7863 -41.7863 -41.7863 -41.7863 -41.7836 -41.7836
   -41.7835 -41.7835 -41.7833 -41.7825 -41.7825 -41.7819 -41.7819 -41.7814
   -41.7814 -41.7811 -41.7811 -41.7810 -41.7809 -41.7809 -41.7809 -41.7809
   -14.2776 -14.2776 -14.2643 -14.2643 -14.1285 -14.1285 -14.1185 -14.1185
   -13.8689 -13.8689 -13.8689 -13.8689 -13.8641 -13.8641 -13.8641 -13.8641
   -13.8242 -13.8179 -13.6063 -13.5941 -13.4892 -13.4892 -13.4892 -13.4892
   -13.4783 -13.4783 -13.4783 -13.4783 -13.4528 -13.4528 -13.4214 -13.4214
   -13.3629 -13.3629 -13.3318 -13.3318 -13.2248 -13.2248 -13.2247 -13.2247
   -13.2198 -13.2198 -13.2125 -13.2125 -13.2125 -13.2125 -13.2003 -13.2003
   -13.1979 -13.1979 -13.1978 -13.1978 -13.1816 -13.1816 -13.1816 -13.1816
   -13.1670 -13.1365 -13.1365 -13.1352 -13.1263 -13.1211 -13.1079 -13.1079
   -13.0963 -13.0917 -13.0748 -13.0747 -13.0501 -13.0501 -13.0501 -13.0501
   -13.0484 -13.0484 -13.0208 -13.0208 -13.0208 -13.0208 -13.0170 -13.0170
   -12.9867 -12.9867 -12.9810 -12.9809 -12.9809 -12.9809 -12.9800 -12.9565
   -12.9545 -12.9545 -12.9540 -12.9540 -12.9539 -12.9539 -12.9395 -12.9395
   -12.9263 -12.9263 -12.9221 -12.9221 -12.9131 -12.9131 -12.9116 -12.9116
   -12.8950 -12.8950 -12.8843 -12.8843  -6.0108  -5.8558  -5.8558  -5.8352
    -5.8352  -5.8128  -5.8128  -5.8128  -5.8128  -5.7617  -5.5837  -5.5837
    -5.5785  -5.5785  -5.5624  -5.5624  -5.5623  -5.5623  -5.4661  -5.4661
    -5.4618  -5.4618  -5.2692  -5.2692  -5.2692  -5.2692  -5.2076  -5.2076
    -5.2057  -5.2057  -5.1390  -5.1236  -5.0787  -5.0505  -5.0505  -5.0505
    -5.0505  -5.0436  -5.0436  -5.0075  -5.0075  -5.0075  -5.0075  -5.0065
    -5.0065  -5.0037  -5.0037  -4.9912  -4.9912  -4.9445  -4.9444  -4.9444
    -4.9444  -4.9344  -4.9344  -4.9121  -4.9120  -4.9120  -4.9120  -4.8949
    -4.8949  -4.8786  -4.8786  -4.8555  -4.8555  -4.8551  -4.8178  -4.8178
    -4.7860  -4.7840  -4.7840  -4.7213  -4.7213  -4.6794  -4.6794  -4.6794
    -4.6794  -4.6532  -4.6532  -4.6185  -4.6185  -4.6184  -4.6184  -4.5896
    -4.5896  -4.5043  -4.5043  -4.5043  -4.5043  -4.4489  -4.4461  -4.4175
    -4.3832  -4.3831  -4.3657  -4.3657  -4.3657  -4.3657  -4.2874  -4.2759
    -4.2759  -4.2475  -4.2461  -4.2461  -4.2461  -4.2461  -4.2333  -4.2032
    -4.2032  -4.2031  -4.2031  -4.1679  -4.1679  -4.1544  -4.1544  -3.9810
    -3.9810  -3.9750  -3.9750  -3.9169  -3.9169  -3.9169  -3.9169  -3.9123
    -3.9122  -3.9058  -3.8880  -3.8880  -3.8848  -3.8848  -3.8688  -3.8688
    -3.8688  -3.8688  -3.8337  -3.8132  -3.8132  -3.8132  -3.8132  -3.7820
    -3.7820  -3.7463  -3.7463  -3.6931  -3.6931  -3.6772  -3.6772  -3.6772
    -3.6772  -3.6523  -3.6302  -3.6302  -3.6217  -3.6121  -3.5989  -3.5988
    -3.5375  -3.5375  -3.4886  -3.4886  -3.4886  -3.4886  -3.4807  -3.4740
    -3.4740  -3.4044  -3.4043  -3.4043  -3.4043  -3.3746  -3.3746  -3.3594
    -3.3593  -3.3512  -3.3512  -3.3512  -3.3512  -3.3447  -3.3447  -3.3138
    -3.3138  -3.3005  -3.2975  -3.2975  -3.2836  -3.2836  -3.2762  -3.2353
    -3.2353  -3.2353  -3.2353  -3.2048  -3.2048  -3.1986  -3.1870  -3.1869
    -3.1578  -3.1578  -3.0915  -3.0915  -3.0915  -3.0915  -3.0894  -3.0893
    -3.0849  -3.0849  -3.0571  -3.0324  -3.0244  -3.0244  -3.0139  -2.9784
    -2.9783  -2.9315  -2.9315  -2.9315  -2.9315  -2.8883  -2.8883  -2.8882
    -2.8882  -2.8776  -2.8776  -2.8533  -2.8533  -2.8533  -2.8533  -2.7997
    -2.7997  -2.7101  -2.7101  -2.6693  -2.6693  -2.6692  -2.6692  -2.5388
    -2.5388  -2.5312  -2.5312  -2.5311  -2.5311  -2.5247  -2.5090  -2.5090
    -2.5067  -2.5067  -2.5066  -2.5066  -2.4928  -2.4928  -2.4743  -2.4737
    -2.4737  -2.4334  -2.3888  -2.3888  -2.3887  -2.3887  -2.3681  -2.3412
    -2.3412  -2.3412  -2.3412  -2.3278  -2.3278  -2.3185  -2.2969  -2.2605
    -2.2605  -2.2039  -2.2039  -2.2039  -2.2039  -2.1791  -2.1656  -2.1656
    -2.1586  -2.1586  -2.1585  -2.1585  -2.1350  -2.1350  -2.0935  -2.0935
    -2.0785  -2.0785  -2.0785  -2.0785  -2.0194  -2.0052  -2.0052  -2.0051
    -2.0051  -2.0013  -1.9712  -1.9712  -1.9515  -1.9515  -1.9234  -1.9234
    -1.8669  -1.8524  -1.8524  -1.8487  -1.8487  -1.7895  -1.7895  -1.7767
    -1.7766  -1.7486  -1.7485  -1.7485  -1.7485  -1.7401  -1.7127  -1.7113
    -1.7113  -1.7112  -1.7112  -1.7021  -1.7021  -1.6951  -1.6951  -1.6950
    -1.6950  -1.6870  -1.6870  -1.6621  -1.6621  -1.6490  -1.6490  -1.5733
    -1.5733  -1.5551  -1.5103  -1.5102  -1.5102  -1.5102  -1.5002  -1.5002
    -1.4866  -1.4866  -1.4717  -1.4717  -1.4490  -1.4490  -1.4490  -1.4490
    -1.4084  -1.3853  -1.3853  -1.3780  -1.3780  -1.3779  -1.3779  -1.3760
    -1.3554  -1.3554  -1.3415  -1.3257  -1.3257  -1.3257  -1.3257  -1.2711
    -1.2711  -1.0939  -1.0939  -1.0885  -1.0883  -1.0883  -1.0518  -1.0518
    -1.0517  -1.0517  -0.9206  -0.9206  -0.8675  -0.8675   0.2824   0.2824
     0.3300   0.3583   0.3583   0.4031   0.4031   0.4146   0.4146   0.4146
     0.4146   0.4925   0.4925   0.4925   0.4925   0.5099   0.5099   0.5204
     0.5204   0.5542   0.5670   0.6763   0.6842   0.6842   0.6856   0.6856
     0.6856   0.6856   0.7137   0.7150   0.7150   0.7150   0.7151   0.7762
     0.7762   0.7762   0.7762   0.8335   0.8335   0.8403   0.8403   0.8403
     0.8403   0.8617   0.8722   0.8722   0.9386   0.9386   0.9475   0.9475
     0.9702   0.9702   1.0856   1.0856   1.0857   1.0857   1.0857   1.0857
     1.0887   1.0887   1.1089   1.1089   1.2543   1.2655   1.2956   1.2957
     1.3045   1.3045   1.3045   1.3045   1.3851   1.3851   1.4197   1.4302
     1.4302   1.4462   1.4462   1.4482   1.4482   1.4679   1.4679   1.4679
     1.4679   1.4680   1.4680   1.5148   1.5481   1.5481   1.5481   1.5481
     1.6578   1.6578   1.6809   1.7435   1.7435   1.7632   1.7632   1.7632
     1.7632   1.7708   1.7708   1.8520   1.8520   1.8940   1.8940   1.8941
     1.8941   1.9008   1.9416   1.9416   2.0079   2.0079   2.0079   2.0079
     2.0142   2.0142   2.0434   2.0738   2.0946   2.0946   2.0946   2.0946
     2.1065   2.1065   2.1327   2.1327

 ------ SPIN DOWN ----------


          k = 0.0000 0.0000 0.0000 (****** PWs)   bands (ev):

   -73.5262 -73.5261 -73.5261 -73.5261 -73.5261 -73.5261 -73.5261 -73.5260
   -73.5260 -73.5258 -73.5258 -73.5257 -73.5257 -73.5257 -73.5257 -73.5257
   -73.5257 -73.5256 -70.4330 -70.4329 -70.4329 -70.4329 -70.4329 -70.4329
   -70.4329 -70.4327 -70.4327 -70.4327 -70.4327 -70.4326 -70.4325 -70.4325
   -70.4325 -70.4325 -70.4325 -70.4324 -44.9453 -44.9450 -44.9450 -44.9450
   -44.9450 -44.9449 -44.9449 -44.9445 -44.9445 -44.9443 -44.9443 -44.9439
   -44.9439 -44.9439 -44.9439 -44.9439 -44.9438 -44.9435 -44.9389 -44.9389
   -44.9387 -44.9387 -44.9386 -44.9386 -44.9386 -44.9386 -44.9383 -44.9383
   -44.9374 -44.9374 -44.9374 -44.9374 -44.9373 -44.9373 -44.9357 -44.9357
   -44.9355 -44.9355 -44.9339 -44.9339 -44.9339 -44.9339 -44.9338 -44.9338
   -44.9330 -44.9329 -44.9327 -44.9327 -44.9326 -44.9326 -44.9326 -44.9326
   -44.9323 -44.9323 -41.8517 -41.8512 -41.8512 -41.8512 -41.8512 -41.8512
   -41.8512 -41.8505 -41.8505 -41.8505 -41.8504 -41.8497 -41.8497 -41.8497
   -41.8497 -41.8497 -41.8497 -41.8492 -41.7892 -41.7892 -41.7888 -41.7888
   -41.7888 -41.7888 -41.7888 -41.7888 -41.7884 -41.7884 -41.7872 -41.7872
   -41.7872 -41.7872 -41.7872 -41.7872 -41.7850 -41.7850 -41.7850 -41.7850
   -41.7827 -41.7827 -41.7827 -41.7827 -41.7827 -41.7827 -41.7816 -41.7816
   -41.7811 -41.7811 -41.7811 -41.7811 -41.7811 -41.7811 -41.7807 -41.7807
   -14.3557 -14.3409 -14.0592 -14.0592 -14.0590 -14.0590 -14.0590 -14.0590
   -14.0505 -14.0505 -14.0504 -14.0504 -14.0504 -14.0504 -13.6339 -13.6339
   -13.6331 -13.6331 -13.6329 -13.6329 -13.6321 -13.6321 -13.5013 -13.4697
   -13.3595 -13.3595 -13.3466 -13.3466 -13.3466 -13.3466 -13.3464 -13.3464
   -13.3314 -13.3314 -13.3296 -13.3296 -13.3296 -13.3296 -13.3294 -13.3294
   -13.3214 -13.3214 -13.3213 -13.3213 -13.3213 -13.3213 -13.2904 -13.2904
   -13.2903 -13.2903 -13.2902 -13.2902 -13.0942 -13.0942 -13.0932 -13.0932
   -13.0929 -13.0929 -13.0929 -13.0929 -13.0928 -13.0928 -13.0636 -13.0636
   -13.0626 -13.0626 -13.0621 -13.0621 -13.0621 -13.0621 -13.0620 -13.0620
   -13.0407 -13.0407 -13.0137 -13.0137 -12.9893 -12.9893 -12.9893 -12.9893
   -12.9892 -12.9892 -12.9601 -12.9601 -12.9601 -12.9601 -12.9600 -12.9600
   -12.9598 -12.9598 -12.9597 -12.9597 -12.9597 -12.9596 -12.9542 -12.9540
   -12.9352 -12.9352 -12.9351 -12.9351 -12.9351 -12.9351 -12.9237 -12.9236
   -12.9183 -12.9181 -12.8899 -12.8896  -5.9523  -5.9523  -5.9523  -5.9523
    -5.9522  -5.9522  -5.8027  -5.7002  -5.7002  -5.7002  -5.7002  -5.7002
    -5.7002  -5.5011  -5.4884  -5.4122  -5.4122  -5.4115  -5.4115  -5.3067
    -5.3066  -5.3059  -5.3059  -5.3059  -5.3059  -5.2272  -5.1570  -5.1570
    -5.1563  -5.1563  -5.0840  -5.0840  -5.0835  -5.0835  -5.0835  -5.0835
    -5.0634  -5.0634  -5.0453  -5.0453  -5.0445  -5.0445  -5.0445  -5.0445
    -5.0069  -5.0069  -5.0065  -5.0064  -5.0064  -5.0064  -4.9313  -4.9313
    -4.9313  -4.9313  -4.9310  -4.9310  -4.9144  -4.9125  -4.8704  -4.8684
    -4.8112  -4.8112  -4.8112  -4.8112  -4.8109  -4.8109  -4.8103  -4.8103
    -4.8101  -4.8101  -4.7782  -4.7782  -4.7106  -4.7106  -4.7106  -4.7106
    -4.7103  -4.7103  -4.7098  -4.7077  -4.6570  -4.6570  -4.6568  -4.6568
    -4.6198  -4.6175  -4.5338  -4.5338  -4.5338  -4.5338  -4.5334  -4.5334
    -4.4168  -4.4168  -4.3253  -4.3253  -4.3250  -4.3250  -4.3200  -4.2837
    -4.2586  -4.2387  -4.2387  -4.2386  -4.2386  -4.2384  -4.2384  -4.2151
    -4.2151  -4.2148  -4.2148  -4.2148  -4.2148  -4.2020  -4.2020  -4.0557
    -3.9392  -3.9392  -3.9392  -3.9392  -3.9390  -3.9390  -3.9178  -3.9178
    -3.9175  -3.9175  -3.8776  -3.8776  -3.8776  -3.8776  -3.8765  -3.8765
    -3.8560  -3.8560  -3.8560  -3.8560  -3.8559  -3.8559  -3.7982  -3.7982
    -3.7981  -3.7981  -3.7980  -3.7980  -3.7902  -3.7890  -3.7879  -3.7879
    -3.7657  -3.7657  -3.6469  -3.6469  -3.6469  -3.6468  -3.6465  -3.6465
    -3.5729  -3.5729  -3.4940  -3.4935  -3.4394  -3.4394  -3.4394  -3.4394
    -3.4385  -3.4385  -3.3518  -3.3517  -3.3517  -3.3517  -3.3513  -3.3513
    -3.3347  -3.2873  -3.2240  -3.2240  -3.2229  -3.2229  -3.2229  -3.2229
    -3.1903  -3.1890  -3.1575  -3.1575  -3.1570  -3.1570  -3.1567  -3.1567
    -3.1533  -3.1533  -3.1525  -3.1525  -3.1516  -3.1516  -3.1500  -3.1500
    -3.0796  -3.0796  -3.0787  -3.0787  -3.0787  -3.0786  -3.0635  -3.0628
    -3.0207  -3.0207  -3.0207  -3.0207  -3.0200  -3.0200  -2.9538  -2.9538
    -2.9522  -2.9522  -2.8599  -2.8599  -2.8167  -2.8167  -2.8166  -2.8166
    -2.8164  -2.8164  -2.7923  -2.7923  -2.7914  -2.7914  -2.7914  -2.7914
    -2.6894  -2.6894  -2.6888  -2.6888  -2.6691  -2.6691  -2.6673  -2.6673
    -2.6340  -2.6340  -2.6338  -2.6338  -2.6338  -2.6338  -2.6306  -2.6305
    -2.6298  -2.6298  -2.6295  -2.6295  -2.6068  -2.6068  -2.6064  -2.6064
    -2.6060  -2.6060  -2.4894  -2.4894  -2.4448  -2.4448  -2.4445  -2.4445
    -2.4445  -2.4445  -2.3496  -2.3496  -2.3409  -2.3162  -2.3161  -2.3002
    -2.2311  -2.2311  -2.2307  -2.2307  -2.2305  -2.2305  -2.2060  -2.2060
    -2.2054  -2.2054  -2.1636  -2.1636  -2.1069  -2.0567  -2.0567  -2.0561
    -2.0561  -2.0380  -2.0380  -2.0379  -2.0379  -2.0379  -2.0379  -1.8926
    -1.8926  -1.8925  -1.8925  -1.8924  -1.8924  -1.8860  -1.8860  -1.8857
    -1.8857  -1.8854  -1.8854  -1.8467  -1.8467  -1.8467  -1.8467  -1.8463
    -1.8463  -1.8045  -1.7408  -1.7408  -1.7084  -1.7084  -1.7084  -1.7084
    -1.7076  -1.7076  -1.7061  -1.7055  -1.6705  -1.6705  -1.6702  -1.6702
    -1.6702  -1.6702  -1.6589  -1.6589  -1.6436  -1.6436  -1.6431  -1.6431
    -1.6184  -1.6175  -1.5324  -1.5324  -1.5323  -1.5323  -1.5313  -1.5313
    -1.5216  -1.5206  -1.4901  -1.4901  -1.4892  -1.4892  -1.4891  -1.4891
    -1.3814  -1.3814  -1.3807  -1.3807  -1.3736  -1.3736  -1.3736  -1.3736
    -1.3736  -1.3735  -1.2876  -1.2876  -1.2875  -1.2875  -1.2874  -1.2874
    -1.1661  -1.1661  -1.1651  -1.1651  -0.9890  -0.9890  -0.9890  -0.9890
    -0.9890  -0.9889  -0.9140  -0.9135  -0.8448  -0.8446   0.3417   0.3417
     0.3424   0.3424   0.3425   0.3425   0.3633   0.3642   0.4620   0.4620
     0.4842   0.4842   0.4843   0.4843   0.4855   0.4855   0.5938   0.5938
     0.5939   0.5939   0.5941   0.5941   0.6367   0.6367   0.6373   0.6373
     0.6849   0.6849   0.6857   0.6857   0.6858   0.6859   0.8032   0.8032
     0.8046   0.8046   0.8387   0.8387   0.8459   0.8459   0.8459   0.8459
     0.8463   0.8463   0.8681   0.8681   0.9314   0.9314   0.9315   0.9315
     0.9316   0.9316   0.9350   0.9361   0.9712   0.9714   1.0755   1.1252
     1.2412   1.2412   1.2412   1.2412   1.2413   1.2413   1.3242   1.3242
     1.3317   1.3317   1.3318   1.3318   1.3321   1.3321   1.3820   1.3820
     1.3820   1.3820   1.3821   1.3821   1.4872   1.4877   1.5296   1.5296
     1.5299   1.5299   1.5402   1.5402   1.5406   1.5406   1.5406   1.5406
     1.6717   1.6717   1.6725   1.6725   1.6726   1.6726   1.7683   1.7688
     1.7840   1.7840   1.7841   1.7841   1.7848   1.7849   1.8946   1.8946
     1.9981   1.9981   1.9984   1.9984   2.0029   2.0029   2.0029   2.0029
     2.0030   2.0030   2.0573   2.0573   2.0577   2.0577   2.0577   2.0577
     2.1035   2.1035   2.1855   2.1861

          k =-0.0000-0.5774 0.0000 (****** PWs)   bands (ev):

[...]
   -12.9263 -12.9263 -12.9221 -12.9221 -12.9131 -12.9131 -12.9116 -12.9116
   -12.8950 -12.8950 -12.8843 -12.8843  -6.0107  -5.8558  -5.8557  -5.8352
    -5.8352  -5.8128  -5.8128  -5.8128  -5.8128  -5.7617  -5.5838  -5.5838
    -5.5785  -5.5785  -5.5624  -5.5624  -5.5624  -5.5624  -5.4661  -5.4661
    -5.4618  -5.4618  -5.2692  -5.2692  -5.2692  -5.2692  -5.2076  -5.2076
    -5.2057  -5.2057  -5.1390  -5.1236  -5.0788  -5.0505  -5.0505  -5.0505
    -5.0505  -5.0436  -5.0436  -5.0075  -5.0075  -5.0075  -5.0075  -5.0065
    -5.0065  -5.0037  -5.0037  -4.9912  -4.9912  -4.9445  -4.9445  -4.9444
    -4.9444  -4.9344  -4.9344  -4.9120  -4.9120  -4.9120  -4.9120  -4.8949
    -4.8949  -4.8786  -4.8786  -4.8555  -4.8555  -4.8551  -4.8178  -4.8178
    -4.7860  -4.7840  -4.7840  -4.7213  -4.7213  -4.6795  -4.6795  -4.6794
    -4.6794  -4.6532  -4.6532  -4.6185  -4.6185  -4.6184  -4.6184  -4.5896
    -4.5896  -4.5043  -4.5043  -4.5043  -4.5043  -4.4489  -4.4461  -4.4175
    -4.3832  -4.3832  -4.3657  -4.3657  -4.3657  -4.3657  -4.2874  -4.2759
    -4.2759  -4.2475  -4.2461  -4.2461  -4.2461  -4.2461  -4.2333  -4.2032
    -4.2032  -4.2032  -4.2032  -4.1679  -4.1679  -4.1544  -4.1544  -3.9810
    -3.9810  -3.9750  -3.9750  -3.9169  -3.9169  -3.9168  -3.9168  -3.9122
    -3.9122  -3.9058  -3.8880  -3.8880  -3.8848  -3.8848  -3.8689  -3.8688
    -3.8688  -3.8688  -3.8337  -3.8132  -3.8132  -3.8132  -3.8132  -3.7819
    -3.7819  -3.7463  -3.7463  -3.6931  -3.6931  -3.6772  -3.6772  -3.6772
    -3.6771  -3.6523  -3.6302  -3.6302  -3.6217  -3.6121  -3.5989  -3.5989
    -3.5375  -3.5374  -3.4887  -3.4887  -3.4886  -3.4886  -3.4807  -3.4740
    -3.4740  -3.4044  -3.4044  -3.4043  -3.4043  -3.3746  -3.3746  -3.3593
    -3.3593  -3.3512  -3.3512  -3.3512  -3.3512  -3.3447  -3.3447  -3.3138
    -3.3138  -3.3005  -3.2975  -3.2975  -3.2836  -3.2836  -3.2763  -3.2353
    -3.2353  -3.2353  -3.2353  -3.2048  -3.2048  -3.1986  -3.1870  -3.1869
    -3.1577  -3.1577  -3.0915  -3.0915  -3.0915  -3.0915  -3.0894  -3.0893
    -3.0850  -3.0849  -3.0571  -3.0324  -3.0244  -3.0244  -3.0139  -2.9784
    -2.9784  -2.9315  -2.9315  -2.9315  -2.9315  -2.8883  -2.8883  -2.8883
    -2.8883  -2.8776  -2.8776  -2.8533  -2.8533  -2.8533  -2.8533  -2.7997
    -2.7997  -2.7101  -2.7101  -2.6692  -2.6692  -2.6692  -2.6692  -2.5387
    -2.5387  -2.5312  -2.5312  -2.5311  -2.5311  -2.5247  -2.5090  -2.5090
    -2.5067  -2.5067  -2.5066  -2.5066  -2.4928  -2.4928  -2.4742  -2.4737
    -2.4737  -2.4334  -2.3888  -2.3888  -2.3887  -2.3887  -2.3681  -2.3412
    -2.3412  -2.3412  -2.3412  -2.3278  -2.3278  -2.3185  -2.2969  -2.2606
    -2.2606  -2.2039  -2.2039  -2.2039  -2.2039  -2.1790  -2.1656  -2.1656
    -2.1586  -2.1586  -2.1585  -2.1585  -2.1350  -2.1350  -2.0935  -2.0935
    -2.0785  -2.0785  -2.0785  -2.0785  -2.0194  -2.0052  -2.0052  -2.0052
    -2.0052  -2.0013  -1.9712  -1.9712  -1.9515  -1.9515  -1.9234  -1.9234
    -1.8669  -1.8524  -1.8524  -1.8487  -1.8487  -1.7895  -1.7895  -1.7767
    -1.7767  -1.7486  -1.7486  -1.7485  -1.7485  -1.7401  -1.7127  -1.7112
    -1.7112  -1.7112  -1.7112  -1.7021  -1.7021  -1.6951  -1.6951  -1.6950
    -1.6950  -1.6870  -1.6870  -1.6621  -1.6621  -1.6489  -1.6489  -1.5733
    -1.5733  -1.5551  -1.5103  -1.5103  -1.5103  -1.5103  -1.5002  -1.5002
    -1.4866  -1.4866  -1.4717  -1.4717  -1.4490  -1.4490  -1.4490  -1.4489
    -1.4084  -1.3852  -1.3852  -1.3780  -1.3780  -1.3779  -1.3779  -1.3760
    -1.3554  -1.3554  -1.3415  -1.3257  -1.3257  -1.3256  -1.3256  -1.2711
    -1.2711  -1.0939  -1.0939  -1.0885  -1.0883  -1.0883  -1.0518  -1.0518
    -1.0517  -1.0517  -0.9205  -0.9205  -0.8675  -0.8675   0.2824   0.2824
     0.3300   0.3583   0.3583   0.4031   0.4031   0.4146   0.4146   0.4146
     0.4147   0.4925   0.4925   0.4926   0.4926   0.5099   0.5099   0.5204
     0.5204   0.5542   0.5670   0.6763   0.6842   0.6842   0.6856   0.6856
     0.6856   0.6856   0.7137   0.7150   0.7150   0.7151   0.7151   0.7761
     0.7762   0.7762   0.7762   0.8336   0.8336   0.8402   0.8402   0.8403
     0.8403   0.8617   0.8722   0.8722   0.9386   0.9386   0.9474   0.9474
     0.9701   0.9701   1.0856   1.0856   1.0856   1.0856   1.0857   1.0857
     1.0887   1.0887   1.1089   1.1089   1.2543   1.2654   1.2956   1.2956
     1.3044   1.3044   1.3045   1.3045   1.3851   1.3851   1.4197   1.4302
     1.4302   1.4462   1.4462   1.4482   1.4482   1.4679   1.4679   1.4679
     1.4679   1.4679   1.4679   1.5148   1.5481   1.5481   1.5481   1.5481
     1.6578   1.6578   1.6809   1.7435   1.7435   1.7631   1.7631   1.7632
     1.7632   1.7708   1.7708   1.8519   1.8519   1.8940   1.8940   1.8940
     1.8940   1.9008   1.9416   1.9416   2.0079   2.0079   2.0079   2.0079
     2.0142   2.0142   2.0434   2.0738   2.0946   2.0946   2.0946   2.0946
     2.1065   2.1065   2.1327   2.1327

     the Fermi energy is    -0.2898 ev

!    total energy              =   -9215.83884016 Ry
     estimated scf accuracy    <       0.00000002 Ry
     smearing contrib. (-TS)   =      -0.00000088 Ry
     internal energy E=F+TS    =   -9215.83883928 Ry

     The total energy is F=E-TS. E is the sum of the following terms:
     one-electron contribution =  -54167.30018866 Ry
     hartree contribution      =   27187.44211746 Ry
     xc contribution           =   -1818.11832498 Ry
     ewald contribution        =   19590.81484822 Ry
     DFT-D3 Dispersion         =      -8.67729132 Ry

     total magnetization       =     0.00 Bohr mag/cell
     absolute magnetization    =   126.47 Bohr mag/cell

     convergence has been achieved in  18 iterations

     Forces acting on atoms (cartesian axes, Ry/au):

     atom    1 type  2   force =     0.00022252    0.00016102    0.00044647
     atom    2 type  2   force =     0.00005488    0.00006444    0.00027797
     atom    3 type  2   force =    -0.00025086   -0.00007603    0.00035880
     atom    4 type  1   force =    -0.00005194    0.00003422    0.00029327
     atom    5 type  1   force =     0.00014179   -0.00008109    0.00029352
     atom    6 type  2   force =    -0.00006023    0.00025696    0.00017565
     atom    7 type  2   force =    -0.00003450   -0.00008125    0.00025817
     atom    8 type  2   force =    -0.00002961   -0.00027616    0.00008604
     atom    9 type  4   force =     0.00022769    0.00016127   -0.00008748
     atom   10 type  4   force =     0.00005574    0.00006617   -0.00025597
     atom   11 type  4   force =    -0.00024923   -0.00007768   -0.00017617
     atom   12 type  3   force =    -0.00006938    0.00003300   -0.00029316
     atom   13 type  3   force =     0.00016132   -0.00007486   -0.00029361
     atom   14 type  4   force =    -0.00005938    0.00025397   -0.00035892
     atom   15 type  4   force =    -0.00002908   -0.00008082   -0.00027718
     atom   16 type  4   force =    -0.00003001   -0.00027229   -0.00044781
     atom   17 type  2   force =     0.00022223    0.00016241    0.00044575
     atom   18 type  2   force =     0.00005440    0.00006415    0.00027821
     atom   19 type  2   force =    -0.00024985   -0.00007607    0.00035856
     atom   20 type  1   force =    -0.00004527    0.00002240    0.00029318
     atom   21 type  1   force =     0.00014289   -0.00008849    0.00029334
     atom   22 type  2   force =    -0.00005976    0.00025584    0.00017667
     atom   23 type  2   force =    -0.00003482   -0.00007995    0.00025742
     atom   24 type  2   force =    -0.00003028   -0.00027623    0.00008641
     atom   25 type  4   force =     0.00022737    0.00016276   -0.00008821
     atom   26 type  4   force =     0.00005564    0.00006601   -0.00025724
     atom   27 type  4   force =    -0.00024995   -0.00007830   -0.00017579
     atom   28 type  3   force =    -0.00007582    0.00002889   -0.00029318
     atom   29 type  3   force =     0.00016663   -0.00008480   -0.00029358
     atom   30 type  4   force =    -0.00005851    0.00025338   -0.00035841
     atom   31 type  4   force =    -0.00002928   -0.00007993   -0.00027639
     atom   32 type  4   force =    -0.00002982   -0.00027275   -0.00044777
     atom   33 type  2   force =     0.00022306    0.00016125    0.00044720
     atom   34 type  2   force =     0.00005486    0.00006442    0.00027834
     atom   35 type  2   force =    -0.00025080   -0.00007526    0.00035795
     atom   36 type  1   force =    -0.00004845    0.00002839    0.00029312
     atom   37 type  1   force =     0.00013631   -0.00007731    0.00029332
     atom   38 type  2   force =    -0.00006072    0.00025670    0.00017625
     atom   39 type  2   force =    -0.00003501   -0.00008098    0.00025746
     atom   40 type  2   force =    -0.00002949   -0.00027598    0.00008611
     atom   41 type  4   force =     0.00022805    0.00016183   -0.00008693
     atom   42 type  4   force =     0.00005501    0.00006671   -0.00025613
     atom   43 type  4   force =    -0.00024968   -0.00007840   -0.00017628
     atom   44 type  3   force =    -0.00007094    0.00003058   -0.00029316
     atom   45 type  3   force =     0.00016029   -0.00007367   -0.00029355
     atom   46 type  4   force =    -0.00005891    0.00025333   -0.00035831
     atom   47 type  4   force =    -0.00003029   -0.00008024   -0.00027774
     atom   48 type  4   force =    -0.00003001   -0.00027228   -0.00044657
     atom   49 type  2   force =     0.00022235    0.00016125    0.00044723
     atom   50 type  2   force =     0.00005462    0.00006331    0.00027846
     atom   51 type  2   force =    -0.00025037   -0.00007499    0.00035834
     atom   52 type  1   force =    -0.00004452    0.00003454    0.00029333
     atom   53 type  1   force =     0.00014273   -0.00007419    0.00029353
     atom   54 type  2   force =    -0.00006045    0.00025628    0.00017549
     atom   55 type  2   force =    -0.00003386   -0.00008113    0.00025779
     atom   56 type  2   force =    -0.00003062   -0.00027585    0.00008585
     atom   57 type  4   force =     0.00022715    0.00016165   -0.00008679
     atom   58 type  4   force =     0.00005598    0.00006719   -0.00025555
     atom   59 type  4   force =    -0.00024991   -0.00007858   -0.00017544
     atom   60 type  3   force =    -0.00007647    0.00003074   -0.00029318
     atom   61 type  3   force =     0.00016321   -0.00007252   -0.00029370
     atom   62 type  4   force =    -0.00005913    0.00025293   -0.00035909
     atom   63 type  4   force =    -0.00002998   -0.00008092   -0.00027782
     atom   64 type  4   force =    -0.00002941   -0.00027195   -0.00044716
     atom   65 type  2   force =     0.00022288    0.00016242    0.00044673
     atom   66 type  2   force =     0.00005448    0.00006337    0.00027746
     atom   67 type  2   force =    -0.00025030   -0.00007623    0.00035886
     atom   68 type  1   force =    -0.00004862    0.00002819    0.00029338
     atom   69 type  1   force =     0.00014810   -0.00008398    0.00029351
     atom   70 type  2   force =    -0.00005996    0.00025678    0.00017564
     atom   71 type  2   force =    -0.00003433   -0.00007994    0.00025844
     atom   72 type  2   force =    -0.00003079   -0.00027660    0.00008584
     atom   73 type  4   force =     0.00022764    0.00016248   -0.00008720
     atom   74 type  4   force =     0.00005626    0.00006656   -0.00025654
     atom   75 type  4   force =    -0.00024967   -0.00007811   -0.00017572
     atom   76 type  3   force =    -0.00007483    0.00002187   -0.00029313
     atom   77 type  3   force =     0.00016447   -0.00008002   -0.00029370
     atom   78 type  4   force =    -0.00005916    0.00025343   -0.00035868
     atom   79 type  4   force =    -0.00002950   -0.00008010   -0.00027730
     atom   80 type  4   force =    -0.00002917   -0.00027228   -0.00044811
     atom   81 type  2   force =     0.00022289    0.00016196    0.00044696
     atom   82 type  2   force =     0.00005382    0.00006366    0.00027823
     atom   83 type  2   force =    -0.00024994   -0.00007562    0.00035781
     atom   84 type  1   force =    -0.00004135    0.00002885    0.00029327
     atom   85 type  1   force =     0.00014947   -0.00007748    0.00029336
     atom   86 type  2   force =    -0.00005942    0.00025623    0.00017590
     atom   87 type  2   force =    -0.00003507   -0.00008033    0.00025726
     atom   88 type  2   force =    -0.00003079   -0.00027586    0.00008707
     atom   89 type  4   force =     0.00022787    0.00016230   -0.00008731
     atom   90 type  4   force =     0.00005622    0.00006717   -0.00025683
     atom   91 type  4   force =    -0.00025071   -0.00007813   -0.00017613
     atom   92 type  3   force =    -0.00008176    0.00003008   -0.00029309
     atom   93 type  3   force =     0.00016960   -0.00007569   -0.00029353
     atom   94 type  4   force =    -0.00005821    0.00025357   -0.00035918
     atom   95 type  4   force =    -0.00003035   -0.00008093   -0.00027716
     atom   96 type  4   force =    -0.00002845   -0.00027218   -0.00044720
     atom   97 type  2   force =     0.00022177    0.00016125    0.00044610
     atom   98 type  2   force =     0.00005524    0.00006379    0.00027850
     atom   99 type  2   force =    -0.00025006   -0.00007558    0.00035873
     atom  100 type  1   force =    -0.00004869    0.00002843    0.00029334
     atom  101 type  1   force =     0.00014349   -0.00008138    0.00029350
     atom  102 type  2   force =    -0.00006026    0.00025600    0.00017565
     atom  103 type  2   force =    -0.00003451   -0.00008117    0.00025710
     atom  104 type  2   force =    -0.00003040   -0.00027515    0.00008680
     atom  105 type  4   force =     0.00022681    0.00016157   -0.00008846
     atom  106 type  4   force =     0.00005562    0.00006708   -0.00025637
     atom  107 type  4   force =    -0.00025021   -0.00007803   -0.00017640
     atom  108 type  3   force =    -0.00007528    0.00003756   -0.00029310
     atom  109 type  3   force =     0.00016268   -0.00008035   -0.00029373
     atom  110 type  4   force =    -0.00005892    0.00025344   -0.00035875
     atom  111 type  4   force =    -0.00002932   -0.00008091   -0.00027595
     atom  112 type  4   force =    -0.00002907   -0.00027295   -0.00044791
     atom  113 type  2   force =     0.00022217    0.00016202    0.00044687
     atom  114 type  2   force =     0.00005553    0.00006342    0.00027736
     atom  115 type  2   force =    -0.00025067   -0.00007535    0.00035888
     atom  116 type  1   force =    -0.00005135    0.00002195    0.00029323
     atom  117 type  1   force =     0.00013696   -0.00008441    0.00029362
     atom  118 type  2   force =    -0.00006085    0.00025592    0.00017654
     atom  119 type  2   force =    -0.00003431   -0.00008046    0.00025749
     atom  120 type  2   force =    -0.00003002   -0.00027545    0.00008576
     atom  121 type  4   force =     0.00022705    0.00016239   -0.00008754
     atom  122 type  4   force =     0.00005497    0.00006693   -0.00025603
     atom  123 type  4   force =    -0.00024937   -0.00007903   -0.00017607
     atom  124 type  3   force =    -0.00007041    0.00002641   -0.00029313
     atom  125 type  3   force =     0.00015612   -0.00008341   -0.00029360
     atom  126 type  4   force =    -0.00005937    0.00025262   -0.00035778
     atom  127 type  4   force =    -0.00002994   -0.00007958   -0.00027683
     atom  128 type  4   force =    -0.00002989   -0.00027322   -0.00044737
     atom  129 type  2   force =     0.00022305    0.00016135    0.00044695
     atom  130 type  2   force =     0.00005523    0.00006399    0.00027745
     atom  131 type  2   force =    -0.00025135   -0.00007568    0.00035877
     atom  132 type  1   force =    -0.00005530    0.00002905    0.00029319
     atom  133 type  1   force =     0.00014217   -0.00008010    0.00029354
     atom  134 type  2   force =    -0.00006009    0.00025683    0.00017576
     atom  135 type  2   force =    -0.00003514   -0.00008125    0.00025730
     atom  136 type  2   force =    -0.00002948   -0.00027535    0.00008684
     atom  137 type  4   force =     0.00022802    0.00016138   -0.00008744
     atom  138 type  4   force =     0.00005532    0.00006704   -0.00025603
     atom  139 type  4   force =    -0.00024958   -0.00007797   -0.00017705
     atom  140 type  3   force =    -0.00006839    0.00002985   -0.00029297
     atom  141 type  3   force =     0.00015732   -0.00007670   -0.00029361
     atom  142 type  4   force =    -0.00005948    0.00025387   -0.00035830
     atom  143 type  4   force =    -0.00002999   -0.00008041   -0.00027708
     atom  144 type  4   force =    -0.00002929   -0.00027272   -0.00044768

     Total force =     0.004288     Total SCF correction =     0.000205


     Computing stress (Cartesian axis) and pressure

          total   stress  (Ry/bohr**3)                   (kbar)     P=       -0.23
   0.00000028  -0.00000011  -0.00000010            0.04       -0.02       -0.01
  -0.00000011   0.00000015  -0.00000017           -0.02        0.02       -0.03
  -0.00000010  -0.00000017  -0.00000503           -0.01       -0.03       -0.74


     Writing all to output data dir ./CrI3-HT-afm.save/ :
     XML data file
     init_run     :     48.29s CPU     91.71s WALL (       1 calls)
     electrons    :   2060.89s CPU   3625.04s WALL (       1 calls)
     forces       :     32.32s CPU     37.51s WALL (       1 calls)
     force_dftd3  :      0.06s CPU      0.07s WALL (       1 calls)
     stress       :     84.91s CPU     91.17s WALL (       1 calls)
     stres_dftd3  :      0.07s CPU      0.07s WALL (       1 calls)

     Called by init_run:
     wfcinit      :     34.79s CPU     70.33s WALL (       1 calls)
     potinit      :      0.53s CPU      0.86s WALL (       1 calls)
     hinit0       :      8.87s CPU      9.10s WALL (       1 calls)

     Called by electrons:
     c_bands      :   1759.78s CPU   3045.52s WALL (      18 calls)
     sum_band     :    281.78s CPU    549.69s WALL (      18 calls)
     v_of_rho     :      6.94s CPU      9.89s WALL (      19 calls)
     mix_rho      :     10.50s CPU     17.63s WALL (      18 calls)
     energy_dftd3 :      0.03s CPU      0.03s WALL (       1 calls)

     Called by c_bands:
     init_us_2    :     22.00s CPU     22.14s WALL (     312 calls)
     cegterg      :   1405.53s CPU   2628.97s WALL (     144 calls)

     Called by *egterg:
     cdiaghg      :     29.72s CPU     30.67s WALL (     504 calls)
                                       30.67s GPU  (     504 calls)
     h_psi        :   1126.76s CPU   2376.16s WALL (     512 calls)
                                     2375.20s GPU  (     512 calls)
     g_psi        :      0.00s CPU      3.38s WALL (     360 calls)
                                        3.38s GPU  (     360 calls)

     Called by h_psi:
     h_psi:calbec :    251.67s CPU    264.44s WALL (     512 calls)
                                      264.44s GPU  (     512 calls)
     vloc_psi     :    652.54s CPU   1888.82s WALL (     512 calls)
                                     1888.84s GPU  (     512 calls)
     add_vuspsi   :      1.73s CPU    219.17s WALL (     512 calls)
                                      219.17s GPU  (     512 calls)

     General routines
     calbec       :    344.64s CPU    362.05s WALL (     648 calls)
     fft          :      6.13s CPU      9.09s WALL (     401 calls)
                                        9.09s GPU  (     401 calls)
     ffts         :      0.55s CPU      0.80s WALL (      36 calls)
                                        0.80s GPU  (      36 calls)
     fftw         :    386.91s CPU   2148.43s WALL (   42720 calls)
                                     2147.90s GPU  (   42720 calls)
 
     Parallel routines
 
     PWSCF        :  37m 6.87s CPU      1h 4m WALL

 
   This run was terminated on:  17:32:33   3Jul2025            

=------------------------------------------------------------------------------=
   JOB DONE.
=------------------------------------------------------------------------------=
