 argument  1 = gs_pc4.inp
                                         
                                         


              Northwest Computational Chemistry Package (NWChem) 6.8
              ------------------------------------------------------


                    Environmental Molecular Sciences Laboratory
                       Pacific Northwest National Laboratory
                                Richland, WA 99352

                              Copyright (c) 1994-2017
                       Pacific Northwest National Laboratory
                            Battelle Memorial Institute

             NWChem is an open-source computational chemistry package
                        distributed under the terms of the
                      Educational Community License (ECL) 2.0
             A copy of the license is included with this distribution
                              in the LICENSE.TXT file

                                  ACKNOWLEDGMENT
                                  --------------

            This software and its documentation were developed at the
            EMSL at Pacific Northwest National Laboratory, a multiprogram
            national laboratory, operated for the U.S. Department of Energy
            by Battelle under Contract Number DE-AC05-76RL01830. Support
            for this work was provided by the Department of Energy Office
            of Biological and Environmental Research, Office of Basic
            Energy Sciences, and the Office of Advanced Scientific Computing.


           Job information
           ---------------

    hostname        = gl3200.arc-ts.umich.edu
    program         = nwchem
    date            = Mon Jun 21 16:06:59 2021

    compiled        = Thu_Sep_05_08:38:08_2019
    source          = /var/software/raeker/nwchem-6.8.1
    nwchem branch   = 6.8.1
    nwchem revision = v6.8-133-ge032219
    ga revision     = 5.6.5
    use scalapack   = F
    input           = gs_pc4.inp
    prefix          = benzamide_pc4_DIIS.
    data base       = ./benzamide_pc4_DIIS.db
    status          = startup
    nproc           =       36
    time left       =     -1s



           Memory information
           ------------------

    heap     =  131071994 doubles =   1000.0 Mbytes
    stack    =  131071999 doubles =   1000.0 Mbytes
    global   =  262144000 doubles =   2000.0 Mbytes (distinct from heap & stack)
    total    =  524287993 doubles =   4000.0 Mbytes
    verify   = yes
    hardfail = no 


           Directory information
           ---------------------

  0 permanent = .
  0 scratch   = .




                                NWChem Input Module
                                -------------------


                 benzamide DIIS in pc-4 basis set with grid medium
                 -------------------------------------------------
 C1  symmetry detected

          ------
          auto-z
          ------


                             Geometry "geometry" -> ""
                             -------------------------

 Output coordinates in a.u. (scale by  1.000000000 to convert to a.u.)

  No.       Tag          Charge          X              Y              Z
 ---- ---------------- ---------- -------------- -------------- --------------
    1 C                    6.0000    -0.03614211    -0.42053916     0.01126238
    2 C                    6.0000     2.22682459     0.90517052     0.33137610
    3 C                    6.0000     2.22992887     3.53827291     0.35148544
    4 C                    6.0000    -0.02480912     4.85824384     0.02734558
    5 C                    6.0000    -2.28089903     3.54226215    -0.33191181
    6 C                    6.0000    -2.28936248     0.91463370    -0.32032235
    7 C                    6.0000    -0.14244891    -3.24634049     0.05524001
    8 O                    8.0000    -2.11732895    -4.34932595     0.68655829
    9 N                    7.0000     1.95702837    -4.49657036    -0.59018118
   10 H                    1.0000     3.99204501    -0.11393705     0.60632692
   11 H                    1.0000     3.99538978     4.54427784     0.62146220
   12 H                    1.0000    -0.03007003     6.90519702     0.03786346
   13 H                    1.0000    -4.04552126     4.55957129    -0.62368055
   14 H                    1.0000    -4.03594231    -0.13380540    -0.55478304
   15 H                    1.0000     1.87234178    -6.42341934    -0.69532107
   16 H                    1.0000     3.39263918    -3.61750506    -1.49991825

      Atomic Mass 
      ----------- 

      C                 12.000000
      O                 15.994910
      N                 14.003070
      H                  1.007825


 Effective nuclear repulsion energy (a.u.)     405.0018246615

            Nuclear Dipole moment (a.u.) 
            ----------------------------
        X                 Y               Z
 ---------------- ---------------- ----------------
    -0.0000000000     0.0000000000     0.0000000000



                                Z-matrix (autoz)
                                -------- 

 Units are Angstrom for bonds and degrees for angles

      Type          Name      I     J     K     L     M      Value
      ----------- --------  ----- ----- ----- ----- ----- ----------
    1 Stretch                  1     2                       1.39817
    2 Stretch                  1     6                       1.39703
    3 Stretch                  1     7                       1.49659
    4 Stretch                  2     3                       1.39342
    5 Stretch                  2    10                       1.08838
    6 Stretch                  3     4                       1.39318
    7 Stretch                  3    11                       1.08472
    8 Stretch                  4     5                       1.39514
    9 Stretch                  4    12                       1.08322
   10 Stretch                  5     6                       1.39050
   11 Stretch                  5    13                       1.08886
   12 Stretch                  6    14                       1.08510
   13 Stretch                  7     8                       1.24275
   14 Stretch                  7     9                       1.33741
   15 Stretch                  9    15                       1.02214
   16 Stretch                  9    16                       1.01256
   17 Bend                     1     2     3               120.24328
   18 Bend                     1     2    10               120.17661
   19 Bend                     1     6     5               120.23471
   20 Bend                     1     6    14               118.86492
   21 Bend                     1     7     8               120.33553
   22 Bend                     1     7     9               117.32751
   23 Bend                     2     1     6               119.50233
   24 Bend                     2     1     7               122.11685
   25 Bend                     2     3     4               119.96071
   26 Bend                     2     3    11               119.52362
   27 Bend                     3     2    10               119.56752
   28 Bend                     3     4     5               119.95974
   29 Bend                     3     4    12               120.19411
   30 Bend                     4     3    11               120.51566
   31 Bend                     4     5     6               120.08597
   32 Bend                     4     5    13               120.42491
   33 Bend                     5     4    12               119.84423
   34 Bend                     5     6    14               120.89919
   35 Bend                     6     1     7               118.37228
   36 Bend                     6     5    13               119.48912
   37 Bend                     7     9    15               118.09611
   38 Bend                     7     9    16               121.15836
   39 Bend                     8     7     9               122.33560
   40 Bend                    15     9    16               117.72972
   41 Torsion                  1     2     3     4          -0.62048
   42 Torsion                  1     2     3    11         179.34918
   43 Torsion                  1     6     5     4          -0.99896
   44 Torsion                  1     6     5    13         178.97968
   45 Torsion                  1     7     9    15        -175.53391
   46 Torsion                  1     7     9    16         -15.62223
   47 Torsion                  2     1     6     5           0.00235
   48 Torsion                  2     1     6    14        -179.60577
   49 Torsion                  2     1     7     8         153.60719
   50 Torsion                  2     1     7     9         -25.97997
   51 Torsion                  2     3     4     5          -0.37831
   52 Torsion                  2     3     4    12        -179.87256
   53 Torsion                  3     2     1     6           0.80783
   54 Torsion                  3     2     1     7        -178.11158
   55 Torsion                  3     4     5     6           1.18781
   56 Torsion                  3     4     5    13        -178.79062
   57 Torsion                  4     3     2    10        -179.33222
   58 Torsion                  4     5     6    14         178.60109
   59 Torsion                  5     4     3    11         179.65234
   60 Torsion                  5     6     1     7         178.96219
   61 Torsion                  6     1     2    10         179.51168
   62 Torsion                  6     1     7     8         -25.32394
   63 Torsion                  6     1     7     9         155.08890
   64 Torsion                  6     5     4    12        -179.31615
   65 Torsion                  7     1     2    10           0.59227
   66 Torsion                  7     1     6    14          -0.64594
   67 Torsion                  8     7     9    15           4.88780
   68 Torsion                  8     7     9    16         164.79948
   69 Torsion                 10     2     3    11           0.63743
   70 Torsion                 11     3     4    12           0.15809
   71 Torsion                 12     4     5    13           0.70542
   72 Torsion                 13     5     6    14          -1.42027


            XYZ format geometry
            -------------------
    16
 geometry
 C                    -0.01912558    -0.22253976     0.00595980
 C                     1.17838491     0.47899564     0.17535669
 C                     1.18002763     1.87237352     0.18599810
 C                    -0.01312842     2.57087211     0.01447066
 C                    -1.20699987     1.87448454    -0.17564018
 C                    -1.21147854     0.48400335    -0.16950730
 C                    -0.07538072    -1.71788953     0.02923176
 O                    -1.12044231    -2.30156434     0.36331103
 N                     1.03561489    -2.37948273    -0.31231045
 H                     2.11249939    -0.06029289     0.32085441
 H                     2.11426937     2.40472845     0.32886366
 H                    -0.01591238     3.65407316     0.02003648
 H                    -2.14079781     2.41282139    -0.33003756
 H                    -2.13572885    -0.07080677    -0.29357856
 H                     0.99080067    -3.39912738    -0.36794809
 H                     1.79530747    -1.91430137    -0.79372261

 ==============================================================================
                                internuclear distances
 ------------------------------------------------------------------------------
       center one      |      center two      | atomic units |       a.u.
 ------------------------------------------------------------------------------
    2 C                |   1 C                |     2.64216  |     2.64216
    3 C                |   2 C                |     2.63318  |     2.63318
    4 C                |   3 C                |     2.63272  |     2.63272
    5 C                |   4 C                |     2.63644  |     2.63644
    6 C                |   1 C                |     2.64001  |     2.64001
    6 C                |   5 C                |     2.62767  |     2.62767
    7 C                |   1 C                |     2.82814  |     2.82814
    8 O                |   7 C                |     2.34847  |     2.34847
    9 N                |   7 C                |     2.52734  |     2.52734
   10 H                |   2 C                |     2.05674  |     2.05674
   11 H                |   3 C                |     2.04983  |     2.04983
   12 H                |   4 C                |     2.04699  |     2.04699
   13 H                |   5 C                |     2.05765  |     2.05765
   14 H                |   6 C                |     2.05055  |     2.05055
   15 H                |   9 N                |     1.93157  |     1.93157
   16 H                |   9 N                |     1.91347  |     1.91347
 ------------------------------------------------------------------------------
                         number of included internuclear distances:         16
 ==============================================================================



 ==============================================================================
                                 internuclear angles
 ------------------------------------------------------------------------------
        center 1       |       center 2       |       center 3       |  degrees
 ------------------------------------------------------------------------------
    2 C                |   1 C                |   6 C                |   119.50
    2 C                |   1 C                |   7 C                |   122.12
    6 C                |   1 C                |   7 C                |   118.37
    1 C                |   2 C                |   3 C                |   120.24
    1 C                |   2 C                |  10 H                |   120.18
    3 C                |   2 C                |  10 H                |   119.57
    2 C                |   3 C                |   4 C                |   119.96
    2 C                |   3 C                |  11 H                |   119.52
    4 C                |   3 C                |  11 H                |   120.52
    3 C                |   4 C                |   5 C                |   119.96
    3 C                |   4 C                |  12 H                |   120.19
    5 C                |   4 C                |  12 H                |   119.84
    4 C                |   5 C                |   6 C                |   120.09
    4 C                |   5 C                |  13 H                |   120.42
    6 C                |   5 C                |  13 H                |   119.49
    1 C                |   6 C                |   5 C                |   120.23
    1 C                |   6 C                |  14 H                |   118.86
    5 C                |   6 C                |  14 H                |   120.90
    1 C                |   7 C                |   8 O                |   120.34
    1 C                |   7 C                |   9 N                |   117.33
    8 O                |   7 C                |   9 N                |   122.34
    7 C                |   9 N                |  15 H                |   118.10
    7 C                |   9 N                |  16 H                |   121.16
   15 H                |   9 N                |  16 H                |   117.73
 ------------------------------------------------------------------------------
                            number of included internuclear angles:         24
 ==============================================================================



  library name resolved from: environment
  library file name is: </sw/arcts/centos7/nwchem/6.8.1/gcc/8.2.0-mpi/data/libraries/>
  

 **** WARNING Zero Coefficient **** on atom "               C"
 angular momentum value: 0  standard basis set name: "pc-4"
 input line that generated warning:
   277:       0.527780E+06           0.296620E-05           0.000000E+00
  

 **** WARNING Zero Coefficient **** on atom "               C"
 angular momentum value: 0  standard basis set name: "pc-4"
 input line that generated warning:
   278:       0.791050E+05           0.231550E-04           0.000000E+00
  

 **** WARNING Zero Coefficient **** on atom "               C"
 angular momentum value: 0  standard basis set name: "pc-4"
 input line that generated warning:
   288:       0.493730E+01           0.000000E+00           0.328540E+00
  

 **** WARNING Zero Coefficient **** on atom "               O"
 angular momentum value: 0  standard basis set name: "pc-4"
 input line that generated warning:
   415:       0.125970E+07           0.206840E-05           0.000000E+00
  

 **** WARNING Zero Coefficient **** on atom "               O"
 angular momentum value: 0  standard basis set name: "pc-4"
 input line that generated warning:
   416:       0.190110E+06           0.159600E-04           0.000000E+00
  

 **** WARNING Zero Coefficient **** on atom "               O"
 angular momentum value: 0  standard basis set name: "pc-4"
 input line that generated warning:
   417:       0.434490E+05           0.833280E-04           0.000000E+00
  

 **** WARNING Zero Coefficient **** on atom "               O"
 angular momentum value: 0  standard basis set name: "pc-4"
 input line that generated warning:
   426:       0.110930E+02           0.000000E+00           0.402600E+00
  

 **** WARNING Zero Coefficient **** on atom "               N"
 angular momentum value: 0  standard basis set name: "pc-4"
 input line that generated warning:
   346:       0.894760E+06           0.226320E-05           0.000000E+00
  

 **** WARNING Zero Coefficient **** on atom "               N"
 angular momentum value: 0  standard basis set name: "pc-4"
 input line that generated warning:
   347:       0.134830E+06           0.175410E-04           0.000000E+00
  

 **** WARNING Zero Coefficient **** on atom "               N"
 angular momentum value: 0  standard basis set name: "pc-4"
 input line that generated warning:
   348:       0.308080E+05           0.911680E-04           0.000000E+00
  

 **** WARNING Zero Coefficient **** on atom "               N"
 angular momentum value: 0  standard basis set name: "pc-4"
 input line that generated warning:
   357:       0.796880E+01           0.000000E+00           0.407130E+00
  
                      Basis "ao basis" -> "" (cartesian)
                      -----
  C (Carbon)
  ----------
            Exponent  Coefficients 
       -------------- ---------------------------------------------------------
  1 S  5.27780000E+05  0.000003
  1 S  7.91050000E+04  0.000023
  1 S  1.80060000E+04  0.000121
  1 S  5.10080000E+03  0.000515
  1 S  1.66470000E+03  0.001846
  1 S  6.01660000E+02  0.006029
  1 S  2.35400000E+02  0.017023
  1 S  9.82630000E+01  0.044077
  1 S  4.32690000E+01  0.089061
  1 S  1.98580000E+01  0.148170
  1 S  9.56920000E+00  0.061436

  2 S  1.80060000E+04  0.000000
  2 S  5.10080000E+03 -0.000004
  2 S  1.66470000E+03  0.000018
  2 S  6.01660000E+02  0.000001
  2 S  2.35400000E+02  0.000711
  2 S  9.82630000E+01  0.002535
  2 S  4.32690000E+01  0.019934
  2 S  1.98580000E+01  0.065047
  2 S  9.56920000E+00  0.270000
  2 S  4.93730000E+00  0.328540

  3 S  2.66870000E+00  1.000000

  4 S  1.46740000E+00  1.000000

  5 S  6.38630000E-01  1.000000

  6 S  3.02400000E-01  1.000000

  7 S  1.41160000E-01  1.000000

  8 S  6.37490000E-02  1.000000

  9 P  3.82210000E+02  0.000985
  9 P  9.04890000E+01  0.008585
  9 P  2.88710000E+01  0.048272
  9 P  1.03850000E+01  0.204540
  9 P  4.49720000E+00  0.498670

 10 P  2.02740000E+00  1.000000

 11 P  9.51540000E-01  1.000000

 12 P  4.48150000E-01  1.000000

 13 P  2.07210000E-01  1.000000

 14 P  9.48700000E-02  1.000000

 15 P  4.08430000E-02  1.000000

 16 D  8.40000000E+00  1.000000

 17 D  3.00000000E+00  1.000000

 18 D  1.20000000E+00  1.000000

 19 D  5.50000000E-01  1.000000

 20 D  2.50000000E-01  1.000000

 21 D  1.00000000E-01  1.000000

 22 F  2.10000000E+00  1.000000

 23 F  9.00000000E-01  1.000000

 24 F  4.00000000E-01  1.000000

 25 G  2.10000000E+00  1.000000

 26 G  9.00000000E-01  1.000000

 27 H  1.85000000E+00  1.000000

  O (Oxygen)
  ----------
            Exponent  Coefficients 
       -------------- ---------------------------------------------------------
  1 S  1.25970000E+06  0.000002
  1 S  1.90110000E+05  0.000016
  1 S  4.34490000E+04  0.000083
  1 S  1.23420000E+04  0.000352
  1 S  4.03500000E+03  0.001271
  1 S  1.45970000E+03  0.004132
  1 S  5.70660000E+02  0.011970
  1 S  2.37500000E+02  0.031561
  1 S  1.04110000E+02  0.069960
  1 S  4.75810000E+01  0.127020
  1 S  2.25460000E+01  0.118990

  2 S  1.23420000E+04 -0.000001
  2 S  4.03500000E+03  0.000007
  2 S  1.45970000E+03  0.000019
  2 S  5.70660000E+02  0.000352
  2 S  2.37500000E+02  0.001705
  2 S  1.04110000E+02  0.011412
  2 S  4.75810000E+01  0.046025
  2 S  2.25460000E+01  0.191400
  2 S  1.10930000E+01  0.402600

  3 S  5.54090000E+00  1.000000

  4 S  2.77940000E+00  1.000000

  5 S  1.28370000E+00  1.000000

  6 S  5.96490000E-01  1.000000

  7 S  2.70570000E-01  1.000000

  8 S  1.20280000E-01  1.000000

  9 P  7.08610000E+02  0.001046
  9 P  1.67860000E+02  0.009129
  9 P  5.39670000E+01  0.050977
  9 P  1.98070000E+01  0.215990
  9 P  8.38320000E+00  0.587770

 10 P  3.74470000E+00  1.000000

 11 P  1.73220000E+00  1.000000

 12 P  7.99770000E-01  1.000000

 13 P  3.63230000E-01  1.000000

 14 P  1.59630000E-01  1.000000

 15 P  6.56640000E-02  1.000000

 16 D  1.82000000E+01  1.000000

 17 D  6.00000000E+00  1.000000

 18 D  2.40000000E+00  1.000000

 19 D  1.10000000E+00  1.000000

 20 D  5.00000000E-01  1.000000

 21 D  2.00000000E-01  1.000000

 22 F  2.60000000E+00  1.000000

 23 F  1.15000000E+00  1.000000

 24 F  5.00000000E-01  1.000000

 25 G  3.05000000E+00  1.000000

 26 G  1.30000000E+00  1.000000

 27 H  2.05000000E+00  1.000000

  N (Nitrogen)
  ------------
            Exponent  Coefficients 
       -------------- ---------------------------------------------------------
  1 S  8.94760000E+05  0.000002
  1 S  1.34830000E+05  0.000018
  1 S  3.08080000E+04  0.000091
  1 S  8.75150000E+03  0.000387
  1 S  2.86200000E+03  0.001387
  1 S  1.03530000E+03  0.004550
  1 S  4.04730000E+02  0.013009
  1 S  1.68330000E+02  0.034696
  1 S  7.36950000E+01  0.074804
  1 S  3.37530000E+01  0.134570
  1 S  1.61570000E+01  0.116720

  2 S  8.75150000E+03 -0.000003
  2 S  2.86200000E+03  0.000014
  2 S  1.03530000E+03 -0.000015
  2 S  4.04730000E+02  0.000481
  2 S  1.68330000E+02  0.001538
  2 S  7.36950000E+01  0.013555
  2 S  3.37530000E+01  0.047311
  2 S  1.61570000E+01  0.201600
  2 S  7.96880000E+00  0.407130

  3 S  3.95210000E+00  1.000000

  4 S  1.94540000E+00  1.000000

  5 S  9.29290000E-01  1.000000

  6 S  4.40850000E-01  1.000000

  7 S  2.03400000E-01  1.000000

  8 S  9.12260000E-02  1.000000

  9 P  5.66230000E+02  0.000924
  9 P  1.34100000E+02  0.008090
  9 P  4.30130000E+01  0.045463
  9 P  1.56120000E+01  0.196220
  9 P  6.64270000E+00  0.517540

 10 P  2.97480000E+00  1.000000

 11 P  1.38850000E+00  1.000000

 12 P  6.50120000E-01  1.000000

 13 P  3.00280000E-01  1.000000

 14 P  1.36200000E-01  1.000000

 15 P  5.78450000E-02  1.000000

 16 D  1.28000000E+01  1.000000

 17 D  4.40000000E+00  1.000000

 18 D  1.75000000E+00  1.000000

 19 D  8.00000000E-01  1.000000

 20 D  3.70000000E-01  1.000000

 21 D  1.50000000E-01  1.000000

 22 F  2.30000000E+00  1.000000

 23 F  1.00000000E+00  1.000000

 24 F  4.50000000E-01  1.000000

 25 G  2.55000000E+00  1.000000

 26 G  1.10000000E+00  1.000000

 27 H  1.95000000E+00  1.000000

  H (Hydrogen)
  ------------
            Exponent  Coefficients 
       -------------- ---------------------------------------------------------
  1 S  3.07970000E+03  0.000235
  1 S  4.61520000E+02  0.001825
  1 S  1.05060000E+02  0.009593
  1 S  2.97640000E+01  0.040461
  1 S  9.71830000E+00  0.146070

  2 S  3.51790000E+00  1.000000

  3 S  1.37700000E+00  1.000000

  4 S  5.68310000E-01  1.000000

  5 S  2.43410000E-01  1.000000

  6 S  1.05050000E-01  1.000000

  7 S  4.41980000E-02  1.000000

  8 P  3.00000000E+01  1.000000

  9 P  6.60000000E+00  1.000000

 10 P  2.10000000E+00  1.000000

 11 P  9.50000000E-01  1.000000

 12 P  4.50000000E-01  1.000000

 13 P  1.50000000E-01  1.000000

 14 D  2.10000000E+00  1.000000

 15 D  7.00000000E-01  1.000000

 16 D  3.00000000E-01  1.000000

 17 F  2.50000000E+00  1.000000

 18 F  9.00000000E-01  1.000000

 19 G  3.20000000E+00  1.000000



 Summary of "ao basis" -> "" (cartesian)
 ------------------------------------------------------------------------------
       Tag                 Description            Shells   Functions and Types
 ---------------- ------------------------------  ------  ---------------------
 C                            pc-4                  27      146   8s7p6d3f2g1h
 O                            pc-4                  27      146   8s7p6d3f2g1h
 N                            pc-4                  27      146   8s7p6d3f2g1h
 H                            pc-4                  19       78   7s6p3d2f1g


  pbe96 is a nonlocal functional; adding pw91lda local functional. 

                                 NWChem DFT Module
                                 -----------------


                 benzamide DIIS in pc-4 basis set with grid medium




 Summary of "ao basis" -> "ao basis" (cartesian)
 ------------------------------------------------------------------------------
       Tag                 Description            Shells   Functions and Types
 ---------------- ------------------------------  ------  ---------------------
 C                            pc-4                  27      146   8s7p6d3f2g1h
 O                            pc-4                  27      146   8s7p6d3f2g1h
 N                            pc-4                  27      146   8s7p6d3f2g1h
 H                            pc-4                  19       78   7s6p3d2f1g


  Caching 1-el integrals 

            General Information
            -------------------
          SCF calculation type: DFT
          Wavefunction type:  closed shell.
          No. of atoms     :    16
          No. of electrons :    64
           Alpha electrons :    32
            Beta electrons :    32
          Charge           :     0
          Spin multiplicity:     1
          Use of symmetry is: off; symmetry adaption is: off
          Maximum number of iterations: 100
          This is a Direct SCF calculation.
          AO basis - number of functions:  1860
                     number of shells:   376
          Convergence on energy requested:  1.00D-06
          Convergence on density requested:  1.00D-06
          Convergence on gradient requested:  5.00D-04

              XC Information
              --------------
          PerdewBurkeErnzerhof Exchange Functional  1.000          
            Perdew 1991 LDA Correlation Functional  1.000 local    
           PerdewBurkeErnz. Correlation Functional  1.000 non-local

             Grid Information
             ----------------
          Grid used for XC integration:  medium    
          Radial quadrature: Mura-Knowles        
          Angular quadrature: Lebedev. 
          Tag              B.-S. Rad. Rad. Pts. Rad. Cut. Ang. Pts.
          ---              ---------- --------- --------- ---------
          C                   0.70       49          17.0       434
          O                   0.60       49          17.0       434
          N                   0.65       49          17.0       434
          H                   0.35       45          18.0       434
          Grid pruning is: on 
          Number of quadrature shells:   756
          Spatial weights used:  Erf1

          Convergence Information
          -----------------------
          Convergence aids based upon iterative change in 
          total energy or number of iterations. 
          Levelshifting, if invoked, occurs when the 
          HOMO/LUMO gap drops below (HL_TOL):  1.00D-02
          DIIS, if invoked, will attempt to extrapolate 
          using up to (NFOCK): 10 stored Fock matrices.

                    Damping( 0%)  Levelshifting(0.5)       DIIS
                  --------------- ------------------- ---------------
          dE  on:    start            ASAP                start   
          dE off:    2 iters        100 iters           100 iters 

          Smearing applied:  0.16D-02 (hartree)

      Screening Tolerance Information
      -------------------------------
          Density screening/tol_rho:  1.00D-10
          AO Gaussian exp screening on grid/accAOfunc:  14
          CD Gaussian exp screening on grid/accCDfunc:  20
          XC Gaussian exp screening on grid/accXCfunc:  20
          Schwarz screening/accCoul:  1.00D-08


 WARNING : Found   131 linear dependencies 
 S eigenvalue threshold:     1.00000E-05
 Smallest S eigenvalue :     4.04640E-10
 Largest  S eigenvalue :     9.85755E-06


 !! The overlap matrix has 131 vectors deemed linearly dependent with
    eigenvalues:
 4.05D-10 1.53D-09 1.83D-09 1.90D-09 1.96D-09 1.98D-09 2.01D-09 2.22D-09
 4.25D-09 6.40D-09 1.21D-08 1.50D-08 2.09D-08 3.01D-08 3.65D-08 4.26D-08
 4.64D-08 7.67D-08 1.52D-07 1.61D-07 2.61D-07 2.72D-07 2.76D-07 2.97D-07
 3.08D-07 3.12D-07 3.23D-07 4.03D-07 4.09D-07 4.28D-07 4.45D-07 4.86D-07
 4.88D-07 5.74D-07 5.91D-07 6.16D-07 6.40D-07 6.62D-07 6.67D-07 6.80D-07
 6.85D-07 6.99D-07 7.32D-07 7.41D-07 7.45D-07 7.68D-07 8.19D-07 8.41D-07
 8.51D-07 8.70D-07 9.00D-07 9.13D-07 9.48D-07 9.86D-07 1.02D-06 1.04D-06
 1.11D-06 1.13D-06 1.24D-06 1.25D-06 1.28D-06 1.36D-06 1.44D-06 1.45D-06
 1.51D-06 1.56D-06 1.57D-06 1.61D-06 1.61D-06 1.65D-06 1.69D-06 1.72D-06
 1.73D-06 1.81D-06 1.84D-06 1.85D-06 1.97D-06 2.05D-06 2.18D-06 2.28D-06
 2.43D-06 2.48D-06 2.54D-06 2.71D-06 2.75D-06 2.81D-06 3.01D-06 3.10D-06
 3.15D-06 3.22D-06 3.27D-06 3.37D-06 3.42D-06 3.58D-06 3.68D-06 3.72D-06
 3.74D-06 3.87D-06 4.08D-06 4.15D-06 4.27D-06 4.40D-06 4.60D-06 4.64D-06
 4.86D-06 4.92D-06 5.02D-06 5.29D-06 5.36D-06 5.44D-06 6.01D-06 6.18D-06
 6.50D-06 6.53D-06 6.66D-06 6.74D-06 7.02D-06 7.20D-06 7.35D-06 7.62D-06
 7.83D-06 7.94D-06 8.16D-06 8.58D-06 8.80D-06 8.86D-06 9.03D-06 9.21D-06
 9.48D-06 9.69D-06 9.86D-06


      Superposition of Atomic Density Guess
      -------------------------------------

 Sum of atomic energies:        -396.30747106

      Non-variational initial energy
      ------------------------------

 Total energy =    -402.315129
 1-e energy   =   -1337.861522
 2-e energy   =     530.544568
 HOMO         =      -0.310360
 LUMO         =      -0.051428

   Time after variat. SCF:   2883.0
   Time prior to 1st pass:   2883.0

 Grid_pts file          = ./benzamide_pc4_DIIS.gridpts.00
 Record size in doubles =  12289        No. of grid_pts per rec  =   3070
 Max. records in memory =      5        Max. recs in file   = 257523087

 Grid integrated density:      63.680208646552
 Requested integration accuracy:   0.10E-05
 sigma=  0.16D-02 eFermi= -0.29699 T*S=  0.00E+00 nel(1)=   64.00 nel(

           Memory utilization after 1st SCF pass: 
           Heap Space remaining (MW):      130.98           130980154
          Stack Space remaining (MW):      131.06           131061156

   convergence    iter        energy       DeltaE   RMS-Dens  Diis-err    time
 ---------------- ----- ----------------- --------- --------- ---------  ------
 d= 0,ls=0.0,diis     1   -396.8843233697 -8.02D+02  1.25D+02  9.24D+04  6266.8
 Grid integrated density:      63.997727588196
 Requested integration accuracy:   0.10E-05
 sigma=  0.16D-02 eFermi= -1.44189 T*S=  0.00E+00 nel(1)=   64.00 nel(
 d= 0,ls=0.0,diis     2   -227.2927698687  1.70D+02  9.15D+01  1.43D+04  9622.3
 Grid integrated density:      64.000124673298
 Requested integration accuracy:   0.10E-05
 sigma=  0.16D-02 eFermi= -1.21537 T*S=  0.00E+00 nel(1)=   64.00 nel(
 d= 0,ls=0.0,diis     3   -327.5094323403 -1.00D+02  2.14D+01  3.10D+03 13015.1
 sigma=  0.16D-02 eFermi= -1.06581 T*S=  0.00E+00 nel(1)=   64.00 nel(
 d= 0,ls=0.0,diis     4   -137.1282842005  1.90D+02  1.25D+01  2.90D+03 16408.6
 sigma=  0.16D-02 eFermi= -3.30002 T*S= -1.05E-22 nel(1)=   64.00 nel(
 d= 0,ls=0.0,diis     5   -294.0523651204 -1.57D+02  7.27D+01  7.61D+02 20935.9
 sigma=  0.16D-02 eFermi= -1.19129 T*S=  0.00E+00 nel(1)=   64.00 nel(
 d= 0,ls=0.0,diis     6    -39.4931992002  2.55D+02  3.52D+01  2.64D+03 24339.8
 Grid integrated density:      63.999899368214
 Requested integration accuracy:   0.10E-05
 sigma=  0.16D-02 eFermi= -0.23621 T*S=  0.00E+00 nel(1)=   64.00 nel(
 d= 0,ls=0.0,diis     7   -282.4925532512 -2.43D+02  3.52D+01  5.67D+02 28880.3
 sigma=  0.16D-02 eFermi= -0.60054 T*S= -1.43E-03 nel(1)=   64.00 nel(
 d= 0,ls=0.0,diis     8   -330.5178248006 -4.80D+01  4.67D-02  2.89D+02 32285.5
 sigma=  0.16D-02 eFermi= -0.28939 T*S=  0.00E+00 nel(1)=   64.00 nel(
 d= 0,ls=0.0,diis     9   -306.1546333797  2.44D+01  5.97D-03  3.68D+02 36173.7
 sigma=  0.16D-02 eFermi= -0.11550 T*S= -3.37E-04 nel(1)=   64.00 nel(
 d= 0,ls=0.0,diis    10   -368.5900536055 -6.24D+01  3.18D-03  1.49D+02 39586.7
 sigma=  0.16D-02 eFermi= -0.25669 T*S= -2.40E-14 nel(1)=   64.00 nel(
 d= 0,ls=0.0,diis    11   -391.1765968883 -2.26D+01  3.39D-03  4.84D+01 42995.8
 sigma=  0.16D-02 eFermi= -0.15233 T*S=  0.00E+00 nel(1)=   64.00 nel(
 d= 0,ls=0.0,diis    12   -380.8592592500  1.03D+01  1.03D-03  1.14D+02 46385.7
 sigma=  0.16D-02 eFermi= -0.08072 T*S= -3.99E-12 nel(1)=   64.00 nel(
 d= 0,ls=0.0,diis    13   -400.3920487271 -1.95D+01  6.09D-04  1.94D+00 49531.0
 sigma=  0.16D-02 eFermi= -0.09677 T*S=  0.00E+00 nel(1)=   64.00 nel(
 d= 0,ls=0.0,diis    14   -399.0246706782  1.37D+00  5.23D-04  1.38D+01 52664.2
 sigma=  0.16D-02 eFermi= -0.13446 T*S=  0.00E+00 nel(1)=   64.00 nel(
 d= 0,ls=0.0,diis    15   -400.6183966496 -1.59D+00  9.82D-05  2.74D-01 56062.6
 sigma=  0.16D-02 eFermi= -0.09060 T*S= -2.64E-19 nel(1)=   64.00 nel(
  Resetting Diis
 d= 0,ls=0.0,diis    16   -400.6205047834 -2.11D-03  5.36D-05  2.85D-01 59203.3
 sigma=  0.16D-02 eFermi= -0.13720 T*S=  0.00E+00 nel(1)=   64.00 nel(
 d= 0,ls=0.0,diis    17   -400.6514632454 -3.10D-02  3.33D-05  8.42D-03 62336.9
 sigma=  0.16D-02 eFermi= -0.08429 T*S= -6.39E-16 nel(1)=   64.00 nel(
 d= 0,ls=0.0,diis    18   -400.6470368080  4.43D-03  2.43D-05  3.83D-02 65494.9
 sigma=  0.16D-02 eFermi= -0.08435 T*S= -2.29E-13 nel(1)=   64.00 nel(
 d= 0,ls=0.0,diis    19   -400.6524138235 -5.38D-03  4.38D-06  1.67D-03 68889.8
 sigma=  0.16D-02 eFermi= -0.08486 T*S= -9.27E-15 nel(1)=   64.00 nel(
 d= 0,ls=0.0,diis    20   -400.6526360652 -2.22D-04  8.84D-07  3.42D-05 72290.1
 sigma=  0.16D-02 eFermi= -0.08462 T*S= -3.20E-14 nel(1)=   64.00 nel(
 d= 0,ls=0.0,diis    21   -400.6526382215 -2.16D-06  4.37D-07  1.64D-05 75694.3
 sigma=  0.16D-02 eFermi= -0.08461 T*S= -3.00E-14 nel(1)=   64.00 nel(
 d= 0,ls=0.0,diis    22   -400.6526398014 -1.58D-06  9.85D-08  9.87D-07 78849.8
 sigma=  0.16D-02 eFermi= -0.08462 T*S= -2.95E-14 nel(1)=   64.00 nel(
 d= 0,ls=0.0,diis    23   -400.6526398821 -8.07D-08  4.52D-08  1.97D-07 82246.3


         Total DFT energy =     -400.652639882067
      One electron energy =    -1345.500472479733
           Coulomb energy =      595.481180759718
          Exchange energy =      -53.507357521152
       Correlation energy =       -2.127815302415
 Nuclear repulsion energy =      405.001824661514

 Numeric. integr. density =       63.999975098536

     Total iterative time =  79363.5s



                       DFT Final Molecular Orbital Analysis
                       ------------------------------------

 Vector    1  Occ=2.000000D+00  E=-1.871285D+01
              MO Center= -1.1D+00, -2.3D+00,  3.6D-01, r^2= 1.5D-02
   Bfn.  Coefficient  Atom+Function         Bfn.  Coefficient  Atom+Function  
  ----- ------------  ---------------      ----- ------------  ---------------
  1024      0.493179   8 O  s              1023      0.327116   8 O  s         
  1025      0.191024   8 O  s              1026      0.074278   8 O  s         
  1027      0.027063   8 O  s         

 Vector    2  Occ=2.000000D+00  E=-1.401785D+01
              MO Center=  1.0D+00, -2.4D+00, -3.1D-01, r^2= 2.0D-02
   Bfn.  Coefficient  Atom+Function         Bfn.  Coefficient  Atom+Function  
  ----- ------------  ---------------      ----- ------------  ---------------
  1170      0.501274   9 N  s              1169      0.340004   9 N  s         
  1171      0.196024   9 N  s              1172      0.037635   9 N  s         

 Vector    3  Occ=2.000000D+00  E=-9.982841D+00
              MO Center= -7.5D-02, -1.7D+00,  2.9D-02, r^2= 2.8D-02
   Bfn.  Coefficient  Atom+Function         Bfn.  Coefficient  Atom+Function  
  ----- ------------  ---------------      ----- ------------  ---------------
   878      0.545860   7 C  s               877      0.328827   7 C  s         
   879      0.119993   7 C  s               880      0.090032   7 C  s         
   881      0.041401   7 C  s         

 Vector    4  Occ=2.000000D+00  E=-9.908294D+00
              MO Center= -1.4D-02, -2.2D-01,  6.7D-03, r^2= 3.8D-02
   Bfn.  Coefficient  Atom+Function         Bfn.  Coefficient  Atom+Function  
  ----- ------------  ---------------      ----- ------------  ---------------
     2      0.544421   1 C  s                 1      0.327962   1 C  s         
     3      0.119922   1 C  s                 4      0.089784   1 C  s         
     5      0.041180   1 C  s               148      0.037079   2 C  s         

 Vector    5  Occ=2.000000D+00  E=-9.905408D+00
              MO Center=  1.2D+00,  4.8D-01,  1.7D-01, r^2= 4.3D-02
   Bfn.  Coefficient  Atom+Function         Bfn.  Coefficient  Atom+Function  
  ----- ------------  ---------------      ----- ------------  ---------------
   148      0.543736   2 C  s               147      0.327532   2 C  s         
   149      0.119696   2 C  s               150      0.089515   2 C  s         
   151      0.040499   2 C  s                 2     -0.037176   1 C  s         
   294      0.029588   3 C  s         

 Vector    6  Occ=2.000000D+00  E=-9.901787D+00
              MO Center=  7.0D-01,  2.1D+00,  1.2D-01, r^2= 5.1D-01
   Bfn.  Coefficient  Atom+Function         Bfn.  Coefficient  Atom+Function  
  ----- ------------  ---------------      ----- ------------  ---------------
   294      0.423075   3 C  s               440      0.343023   4 C  s         
   293      0.254798   3 C  s               439      0.206563   4 C  s         
   295      0.093461   3 C  s               441      0.075994   4 C  s         
   296      0.069699   3 C  s               442      0.056616   4 C  s         
   297      0.031550   3 C  s               586      0.027790   5 C  s         

 Vector    7  Occ=2.000000D+00  E=-9.901371D+00
              MO Center=  4.5D-01,  2.3D+00,  8.2D-02, r^2= 5.1D-01
   Bfn.  Coefficient  Atom+Function         Bfn.  Coefficient  Atom+Function  
  ----- ------------  ---------------      ----- ------------  ---------------
   440      0.421711   4 C  s               294     -0.343560   3 C  s         
   439      0.254050   4 C  s               293     -0.207000   3 C  s         
   441      0.092780   4 C  s               295     -0.075334   3 C  s         
   442      0.069493   4 C  s               296     -0.056493   3 C  s         
   586      0.040892   5 C  s               443      0.031917   4 C  s         

 Vector    8  Occ=2.000000D+00  E=-9.899288D+00
              MO Center= -1.2D+00,  1.9D+00, -1.7D-01, r^2= 7.0D-02
   Bfn.  Coefficient  Atom+Function         Bfn.  Coefficient  Atom+Function  
  ----- ------------  ---------------      ----- ------------  ---------------
   586      0.539834   5 C  s               585      0.325180   5 C  s         
   587      0.118908   5 C  s               588      0.088950   5 C  s         
   732      0.063655   6 C  s               440     -0.049117   4 C  s         
   589      0.040381   5 C  s               731      0.038286   6 C  s         
   439     -0.029644   4 C  s         

 Vector    9  Occ=2.000000D+00  E=-9.897483D+00
              MO Center= -1.2D+00,  5.0D-01, -1.7D-01, r^2= 5.5D-02
   Bfn.  Coefficient  Atom+Function         Bfn.  Coefficient  Atom+Function  
  ----- ------------  ---------------      ----- ------------  ---------------
   732      0.542009   6 C  s               731      0.326474   6 C  s         
   733      0.119348   6 C  s               734      0.089126   6 C  s         
   586     -0.063535   5 C  s               735      0.040248   6 C  s         
   585     -0.038330   5 C  s         

 Vector   10  Occ=2.000000D+00  E=-9.426428D-01
              MO Center= -4.7D-01, -2.1D+00,  1.5D-01, r^2= 9.9D-01
   Bfn.  Coefficient  Atom+Function         Bfn.  Coefficient  Atom+Function  
  ----- ------------  ---------------      ----- ------------  ---------------
  1024      0.116952   8 O  s              1027     -0.106391   8 O  s         
   878      0.093866   7 C  s              1028     -0.094050   8 O  s         
  1070     -0.076719   8 O  dxx            1073     -0.070883   8 O  dyy       
  1075     -0.069529   8 O  dzz            1064     -0.064530   8 O  dxx       
  1067     -0.061862   8 O  dyy            1069     -0.061816   8 O  dzz       

 Vector   11  Occ=2.000000D+00  E=-8.380462D-01
              MO Center=  5.3D-01, -2.2D+00, -1.9D-01, r^2= 1.5D+00
   Bfn.  Coefficient  Atom+Function         Bfn.  Coefficient  Atom+Function  
  ----- ------------  ---------------      ----- ------------  ---------------
  1170      0.129604   9 N  s              1173     -0.113266   9 N  s         
  1174     -0.094359   9 N  s              1172     -0.079379   9 N  s         
  1786     -0.078437  16 H  s               894     -0.077391   7 C  px        
  1024     -0.075177   8 O  s              1027      0.071118   8 O  s         
  1213     -0.071092   9 N  dyy            1708     -0.070150  15 H  s         

 Vector   12  Occ=2.000000D+00  E=-7.917147D-01
              MO Center=  3.2D-02,  1.0D+00,  3.4D-03, r^2= 2.4D+00
   Bfn.  Coefficient  Atom+Function         Bfn.  Coefficient  Atom+Function  
  ----- ------------  ---------------      ----- ------------  ---------------
     2      0.066531   1 C  s               148      0.065813   2 C  s         
   294      0.064207   3 C  s               732      0.063314   6 C  s         
   440      0.062645   4 C  s               586      0.061981   5 C  s         
   152     -0.047123   2 C  s               444     -0.045022   4 C  s         
     6     -0.044709   1 C  s               298     -0.044807   3 C  s         

 Vector   13  Occ=2.000000D+00  E=-6.974117D-01
              MO Center=  2.4D-02,  8.7D-01, -1.9D-03, r^2= 3.6D+00
   Bfn.  Coefficient  Atom+Function         Bfn.  Coefficient  Atom+Function  
  ----- ------------  ---------------      ----- ------------  ---------------
     2      0.089938   1 C  s               440     -0.086858   4 C  s         
   444      0.054495   4 C  s                 6     -0.053065   1 C  s         
   586     -0.052508   5 C  s              1474      0.044330  12 H  s         
   294     -0.044109   3 C  s               895     -0.042416   7 C  py        
   148      0.041974   2 C  s                 1      0.041208   1 C  s         

 Vector   14  Occ=2.000000D+00  E=-6.877008D-01
              MO Center= -4.7D-03,  1.2D+00,  5.5D-03, r^2= 2.9D+00
   Bfn.  Coefficient  Atom+Function         Bfn.  Coefficient  Atom+Function  
  ----- ------------  ---------------      ----- ------------  ---------------
   732     -0.082190   6 C  s               294      0.080735   3 C  s         
   148      0.076016   2 C  s               586     -0.075773   5 C  s         
   736      0.050189   6 C  s               298     -0.048435   3 C  s         
   590      0.046682   5 C  s               152     -0.045218   2 C  s         
  1396     -0.039975  11 H  s              1318     -0.039039  10 H  s         

 Vector   15  Occ=2.000000D+00  E=-5.896681D-01
              MO Center=  2.4D-01, -2.1D-01, -7.7D-02, r^2= 5.6D+00
   Bfn.  Coefficient  Atom+Function         Bfn.  Coefficient  Atom+Function  
  ----- ------------  ---------------      ----- ------------  ---------------
  1708      0.074669  15 H  s               878      0.068452   7 C  s         
   440      0.064353   4 C  s                19      0.050875   1 C  py        
  1187     -0.049256   9 N  py              732     -0.047556   6 C  s         
  1181     -0.046380   9 N  py               13      0.043810   1 C  py        
  1474     -0.044013  12 H  s               148     -0.040464   2 C  s         

 Vector   16  Occ=2.000000D+00  E=-5.579116D-01
              MO Center=  1.3D-02,  1.0D+00,  7.3D-04, r^2= 4.0D+00
   Bfn.  Coefficient  Atom+Function         Bfn.  Coefficient  Atom+Function  
  ----- ------------  ---------------      ----- ------------  ---------------
   586     -0.068235   5 C  s                18      0.067038   1 C  px        
   148     -0.064904   2 C  s               456     -0.063355   4 C  px        
  1318      0.061755  10 H  s              1552      0.058974  13 H  s         
    12      0.056553   1 C  px              294      0.054907   3 C  s         
   450     -0.053268   4 C  px              732      0.050920   6 C  s         

 Vector   17  Occ=2.000000D+00  E=-5.337808D-01
              MO Center=  4.6D-01, -6.1D-01, -1.6D-01, r^2= 5.8D+00
   Bfn.  Coefficient  Atom+Function         Bfn.  Coefficient  Atom+Function  
  ----- ------------  ---------------      ----- ------------  ---------------
  1786      0.096078  16 H  s              1186      0.085858   9 N  px        
  1180      0.079284   9 N  px             1183      0.058850   9 N  px        
  1189      0.054707   9 N  px              878      0.051664   7 C  s         
   894     -0.047570   7 C  px             1708      0.045391  15 H  s         
  1396     -0.044777  11 H  s                 2     -0.043409   1 C  s         

 Vector   18  Occ=2.000000D+00  E=-5.078849D-01
              MO Center=  6.0D-01, -8.4D-01, -1.9D-01, r^2= 5.2D+00
   Bfn.  Coefficient  Atom+Function         Bfn.  Coefficient  Atom+Function  
  ----- ------------  ---------------      ----- ------------  ---------------
  1786      0.118203  16 H  s              1708     -0.078038  15 H  s         
  1186      0.065150   9 N  px             1180      0.062740   9 N  px        
    19     -0.061570   1 C  py             1181      0.060067   9 N  py        
  1187      0.058945   9 N  py             1785      0.052248  16 H  s         
  1396      0.050318  11 H  s               164      0.049991   2 C  px        

 Vector   19  Occ=2.000000D+00  E=-4.697079D-01
              MO Center=  3.9D-01, -1.6D-01, -1.3D-01, r^2= 7.2D+00
   Bfn.  Coefficient  Atom+Function         Bfn.  Coefficient  Atom+Function  
  ----- ------------  ---------------      ----- ------------  ---------------
  1708      0.109347  15 H  s              1187     -0.086551   9 N  py        
  1181     -0.083029   9 N  py             1786     -0.075050  16 H  s         
   457      0.070932   4 C  py             1190     -0.067083   9 N  py        
  1474      0.065455  12 H  s              1184     -0.062779   9 N  py        
  1318      0.058405  10 H  s               451      0.054188   4 C  py        

 Vector   20  Occ=2.000000D+00  E=-4.337559D-01
              MO Center= -9.0D-02,  5.2D-01,  1.6D-02, r^2= 6.0D+00
   Bfn.  Coefficient  Atom+Function         Bfn.  Coefficient  Atom+Function  
  ----- ------------  ---------------      ----- ------------  ---------------
  1474      0.089045  12 H  s               165     -0.064656   2 C  py        
  1630      0.064640  14 H  s               457      0.063277   4 C  py        
  1318      0.059972  10 H  s               895     -0.056973   7 C  py        
   159     -0.052845   2 C  py             1552     -0.050611  13 H  s         
   451      0.050158   4 C  py               19      0.048812   1 C  py        

 Vector   21  Occ=2.000000D+00  E=-4.138197D-01
              MO Center=  1.0D-01,  8.7D-01,  1.7D-02, r^2= 4.2D+00
   Bfn.  Coefficient  Atom+Function         Bfn.  Coefficient  Atom+Function  
  ----- ------------  ---------------      ----- ------------  ---------------
   311      0.077843   3 C  py               18      0.076211   1 C  px        
   456      0.072324   4 C  px              602     -0.069439   5 C  px        
   305      0.065245   3 C  py              749      0.065435   6 C  py        
   164     -0.064625   2 C  px               12      0.063911   1 C  px        
   450      0.060461   4 C  px              743      0.055373   6 C  py        

 Vector   22  Occ=2.000000D+00  E=-3.959072D-01
              MO Center= -3.2D-02,  5.2D-01,  3.7D-02, r^2= 5.6D+00
   Bfn.  Coefficient  Atom+Function         Bfn.  Coefficient  Atom+Function  
  ----- ------------  ---------------      ----- ------------  ---------------
  1318     -0.075946  10 H  s              1552      0.075046  13 H  s         
   310      0.069568   3 C  px             1396      0.066545  11 H  s         
   457      0.062543   4 C  py               19      0.058925   1 C  py        
   304      0.054917   3 C  px              748      0.052288   6 C  px        
    13      0.050767   1 C  py              164     -0.049338   2 C  px        

 Vector   23  Occ=2.000000D+00  E=-3.854432D-01
              MO Center= -9.8D-03,  1.0D+00,  6.5D-03, r^2= 4.4D+00
   Bfn.  Coefficient  Atom+Function         Bfn.  Coefficient  Atom+Function  
  ----- ------------  ---------------      ----- ------------  ---------------
  1396      0.103265  11 H  s              1630     -0.095007  14 H  s         
   748      0.082488   6 C  px              310      0.081044   3 C  px        
  1552     -0.068256  13 H  s               742      0.066999   6 C  px        
   304      0.065958   3 C  px             1318      0.062155  10 H  s         
   602      0.058979   5 C  px              751      0.055124   6 C  px        

 Vector   24  Occ=2.000000D+00  E=-3.742032D-01
              MO Center=  2.4D-02, -9.1D-01,  2.2D-02, r^2= 4.1D+00
   Bfn.  Coefficient  Atom+Function         Bfn.  Coefficient  Atom+Function  
  ----- ------------  ---------------      ----- ------------  ---------------
   896      0.102553   7 C  pz              899      0.086641   7 C  pz        
  1042      0.081418   8 O  pz             1188      0.080025   9 N  pz        
   890      0.076099   7 C  pz             1036      0.067962   8 O  pz        
    20      0.062324   1 C  pz             1194      0.059061   9 N  pz        
  1182      0.057600   9 N  pz               23      0.054768   1 C  pz        

 Vector   25  Occ=2.000000D+00  E=-3.612114D-01
              MO Center= -7.4D-01, -1.3D+00,  2.1D-01, r^2= 5.2D+00
   Bfn.  Coefficient  Atom+Function         Bfn.  Coefficient  Atom+Function  
  ----- ------------  ---------------      ----- ------------  ---------------
  1040      0.117764   8 O  px             1034      0.109080   8 O  px        
  1046      0.100468   8 O  px             1037      0.090035   8 O  px        
  1043      0.075290   8 O  px             1474      0.064352  12 H  s         
   457      0.063358   4 C  py              894     -0.062520   7 C  px        
   888     -0.060581   7 C  px             1027     -0.059001   8 O  s         

 Vector   26  Occ=2.000000D+00  E=-3.359127D-01
              MO Center=  2.7D-02,  6.2D-01,  9.0D-03, r^2= 4.7D+00
   Bfn.  Coefficient  Atom+Function         Bfn.  Coefficient  Atom+Function  
  ----- ------------  ---------------      ----- ------------  ---------------
   458      0.084011   4 C  pz              312      0.082585   3 C  pz        
   604      0.078966   5 C  pz              461      0.077877   4 C  pz        
   315      0.076989   3 C  pz              607      0.072749   5 C  pz        
   166      0.072298   2 C  pz              169      0.067560   2 C  pz        
   750      0.067374   6 C  pz              753      0.062538   6 C  pz        

 Vector   27  Occ=2.000000D+00  E=-3.200988D-01
              MO Center= -2.0D-01,  1.2D+00,  5.7D-03, r^2= 5.0D+00
   Bfn.  Coefficient  Atom+Function         Bfn.  Coefficient  Atom+Function  
  ----- ------------  ---------------      ----- ------------  ---------------
  1474      0.108069  12 H  s               749      0.086747   6 C  py        
   457      0.085838   4 C  py              603     -0.084054   5 C  py        
  1552     -0.075111  13 H  s               311     -0.073508   3 C  py        
   743      0.073105   6 C  py              165      0.071410   2 C  py        
   597     -0.071268   5 C  py              451      0.067229   4 C  py        

 Vector   28  Occ=2.000000D+00  E=-3.102456D-01
              MO Center= -1.7D-01,  1.0D+00, -1.7D-03, r^2= 4.5D+00
   Bfn.  Coefficient  Atom+Function         Bfn.  Coefficient  Atom+Function  
  ----- ------------  ---------------      ----- ------------  ---------------
  1630      0.106356  14 H  s              1396      0.093053  11 H  s         
    18      0.082726   1 C  px             1552     -0.083021  13 H  s         
   456     -0.081142   4 C  px              748     -0.080387   6 C  px        
   602      0.079506   5 C  px             1318     -0.077923  10 H  s         
   310      0.073458   3 C  px               12      0.071257   1 C  px        

 Vector   29  Occ=2.000000D+00  E=-2.457905D-01
              MO Center=  2.0D-01, -6.4D-01, -2.5D-02, r^2= 5.5D+00
   Bfn.  Coefficient  Atom+Function         Bfn.  Coefficient  Atom+Function  
  ----- ------------  ---------------      ----- ------------  ---------------
  1194      0.121129   9 N  pz             1188      0.120270   9 N  pz        
  1191      0.092907   9 N  pz             1182      0.090909   9 N  pz        
   315      0.089735   3 C  pz              750     -0.088043   6 C  pz        
   753     -0.088294   6 C  pz              312      0.087174   3 C  pz        
  1042     -0.085225   8 O  pz             1036     -0.073934   8 O  pz        

 Vector   30  Occ=2.000000D+00  E=-2.439072D-01
              MO Center=  2.2D-02,  9.8D-01, -1.3D-02, r^2= 3.8D+00
   Bfn.  Coefficient  Atom+Function         Bfn.  Coefficient  Atom+Function  
  ----- ------------  ---------------      ----- ------------  ---------------
   169      0.119297   2 C  pz              607     -0.118217   5 C  pz        
   604     -0.117331   5 C  pz              166      0.116338   2 C  pz        
    23      0.097709   1 C  pz              461     -0.097334   4 C  pz        
   458     -0.096321   4 C  pz               20      0.095264   1 C  pz        
   160      0.086689   2 C  pz              598     -0.086258   5 C  pz        

 Vector   31  Occ=2.000000D+00  E=-2.399469D-01
              MO Center= -2.2D-01, -6.8D-01,  7.4D-02, r^2= 5.5D+00
   Bfn.  Coefficient  Atom+Function         Bfn.  Coefficient  Atom+Function  
  ----- ------------  ---------------      ----- ------------  ---------------
  1042      0.113526   8 O  pz             1036      0.097312   8 O  pz        
  1048      0.093993   8 O  pz              753     -0.089525   6 C  pz        
   750     -0.086937   6 C  pz              315      0.085390   3 C  pz        
  1188     -0.085597   9 N  pz             1194     -0.085307   9 N  pz        
   312      0.084776   3 C  pz             1045      0.082862   8 O  pz        

 Vector   32  Occ=2.000000D+00  E=-2.096224D-01
              MO Center= -8.0D-01, -2.0D+00,  2.7D-01, r^2= 2.2D+00
   Bfn.  Coefficient  Atom+Function         Bfn.  Coefficient  Atom+Function  
  ----- ------------  ---------------      ----- ------------  ---------------
  1047      0.161183   8 O  py             1035      0.150405   8 O  py        
  1041      0.145139   8 O  py             1044      0.124772   8 O  py        
  1038      0.121127   8 O  py             1046     -0.069556   8 O  px        
  1034     -0.062424   8 O  px             1099      0.060993   8 O  fxxy      
  1106      0.061053   8 O  fyzz           1040     -0.060467   8 O  px        

 Vector   33  Occ=0.000000D+00  E=-7.684334D-02
              MO Center= -3.6D-02,  1.8D-01,  1.3D-02, r^2= 5.4D+00
   Bfn.  Coefficient  Atom+Function         Bfn.  Coefficient  Atom+Function  
  ----- ------------  ---------------      ----- ------------  ---------------
    29      0.228456   1 C  pz              902      0.185826   7 C  pz        
   467      0.151597   4 C  pz               23      0.144991   1 C  pz        
   461      0.141127   4 C  pz              464      0.130964   4 C  pz        
   175     -0.122446   2 C  pz              759     -0.118251   6 C  pz        
  1321     -0.118775  10 H  s               458      0.114422   4 C  pz        

 Vector   34  Occ=0.000000D+00  E=-5.485328D-02
              MO Center=  5.3D-02,  1.1D+00, -2.5D-02, r^2= 4.2D+00
   Bfn.  Coefficient  Atom+Function         Bfn.  Coefficient  Atom+Function  
  ----- ------------  ---------------      ----- ------------  ---------------
   321      0.238942   3 C  pz              175     -0.212117   2 C  pz        
   613     -0.189650   5 C  pz              759      0.187823   6 C  pz        
  1789      0.187868  16 H  s               315      0.162398   3 C  pz        
   753      0.159637   6 C  pz              607     -0.158477   5 C  pz        
   169     -0.148702   2 C  pz              312      0.125276   3 C  pz        

 Vector   35  Occ=0.000000D+00  E=-2.866882D-02
              MO Center=  2.0D+00, -1.4D+00, -6.5D-01, r^2= 1.1D+01
   Bfn.  Coefficient  Atom+Function         Bfn.  Coefficient  Atom+Function  
  ----- ------------  ---------------      ----- ------------  ---------------
  1789      1.824058  16 H  s              1788     -1.461808  16 H  s         
   154     -1.203664   2 C  s               300     -1.114764   3 C  s         
   738     -1.067416   6 C  s              1711      1.066408  15 H  s         
   592     -0.862604   5 C  s               884     -0.841224   7 C  s         
   446     -0.797513   4 C  s              1231      0.780451   9 N  dyy       

 Vector   36  Occ=0.000000D+00  E=-8.124027D-03
              MO Center=  5.0D-01,  1.9D+00, -1.6D-01, r^2= 1.9D+01
   Bfn.  Coefficient  Atom+Function         Bfn.  Coefficient  Atom+Function  
  ----- ------------  ---------------      ----- ------------  ---------------
   446      1.852957   4 C  s              1321     -1.741433  10 H  s         
   300      1.590113   3 C  s               592      1.572766   5 C  s         
  1633     -1.343203  14 H  s               173      1.175352   2 C  px        
  1711      1.179755  15 H  s                25     -0.969385   1 C  py        
   757     -0.906922   6 C  px             1710     -0.882941  15 H  s         

 Vector   37  Occ=0.000000D+00  E= 2.374168D-03
              MO Center= -2.5D-02,  3.0D-01, -1.2D-01, r^2= 1.3D+01
   Bfn.  Coefficient  Atom+Function         Bfn.  Coefficient  Atom+Function  
  ----- ------------  ---------------      ----- ------------  ---------------
   319      0.980738   3 C  px              611      0.946883   5 C  px        
  1399     -0.891492  11 H  s               320      0.847940   3 C  py        
   499     -0.787283   4 C  dxy             592      0.704846   5 C  s         
   173      0.687995   2 C  px              902     -0.642912   7 C  pz        
  1711     -0.642341  15 H  s               612     -0.606011   5 C  py        

 Vector   38  Occ=0.000000D+00  E= 8.221634D-03
              MO Center=  2.7D-01, -2.9D-01, -7.8D-02, r^2= 1.7D+01
   Bfn.  Coefficient  Atom+Function         Bfn.  Coefficient  Atom+Function  
  ----- ------------  ---------------      ----- ------------  ---------------
   319      2.080033   3 C  px              611      1.769653   5 C  px        
  1711     -1.704657  15 H  s              1399     -1.653454  11 H  s         
   320      1.244514   3 C  py             1196     -1.194543   9 N  py        
  1555      1.124425  13 H  s               612     -0.969293   5 C  py        
   499     -0.938911   4 C  dxy            1789      0.942756  16 H  s         

 Vector   39  Occ=0.000000D+00  E= 1.690487D-02
              MO Center=  5.0D-01, -3.1D-01, -6.4D-01, r^2= 2.1D+01
   Bfn.  Coefficient  Atom+Function         Bfn.  Coefficient  Atom+Function  
  ----- ------------  ---------------      ----- ------------  ---------------
  1711      2.271673  15 H  s              1789     -2.225511  16 H  s         
   466      1.793230   4 C  py               28      1.488293   1 C  py        
  1196      1.483129   9 N  py              319      1.269207   3 C  px        
  1477     -1.090856  12 H  s              1195      1.079077   9 N  px        
   174     -0.975754   2 C  py              612     -0.889485   5 C  py        

 Vector   40  Occ=0.000000D+00  E= 2.339705D-02
              MO Center=  5.5D-01,  9.3D-01,  1.9D-01, r^2= 1.8D+01
   Bfn.  Coefficient  Atom+Function         Bfn.  Coefficient  Atom+Function  
  ----- ------------  ---------------      ----- ------------  ---------------
   466      2.750942   4 C  py             1789      1.929423  16 H  s         
  1477     -1.686959  12 H  s               758      1.360916   6 C  py        
    60     -1.316131   1 C  dxx            1399     -1.322059  11 H  s         
   757      1.314114   6 C  px               29      1.224845   1 C  pz        
   319      1.150989   3 C  px              174      1.132532   2 C  py        

 Vector   41  Occ=0.000000D+00  E= 2.970862D-02
              MO Center= -6.0D-02,  3.7D-01, -5.8D-01, r^2= 1.8D+01
   Bfn.  Coefficient  Atom+Function         Bfn.  Coefficient  Atom+Function  
  ----- ------------  ---------------      ----- ------------  ---------------
   611      3.156130   5 C  px               28     -2.565317   1 C  py        
    27      2.322874   1 C  px             1555      2.180564  13 H  s         
   612     -1.774461   5 C  py              466     -1.683035   4 C  py        
   319      1.614775   3 C  px             1477      1.493456  12 H  s         
   592      1.298058   5 C  s               903     -1.274892   7 C  px        

 Vector   42  Occ=0.000000D+00  E= 3.505297D-02
              MO Center= -3.5D-02,  1.1D+00,  8.8D-01, r^2= 1.5D+01
   Bfn.  Coefficient  Atom+Function         Bfn.  Coefficient  Atom+Function  
  ----- ------------  ---------------      ----- ------------  ---------------
    28      2.513356   1 C  py               29      1.771849   1 C  pz        
   174     -1.646239   2 C  py              498      1.385087   4 C  dxx       
   319      1.325155   3 C  px              905     -1.261218   7 C  pz        
  1789     -1.267295  16 H  s               758     -1.218141   6 C  py        
   904     -1.180084   7 C  py              501      1.128223   4 C  dyy       

 Vector   43  Occ=0.000000D+00  E= 4.747242D-02
              MO Center=  2.8D-02,  1.0D+00, -5.2D-01, r^2= 1.8D+01
   Bfn.  Coefficient  Atom+Function         Bfn.  Coefficient  Atom+Function  
  ----- ------------  ---------------      ----- ------------  ---------------
    27      2.419809   1 C  px              903     -2.007147   7 C  px        
  1789      1.843939  16 H  s               757     -1.602299   6 C  px        
   319      1.581906   3 C  px              174     -1.494329   2 C  py        
  1788     -1.344066  16 H  s               173     -1.210125   2 C  px        
  1711     -1.182564  15 H  s                28      1.174174   1 C  py        

 Vector   44  Occ=0.000000D+00  E= 5.117250D-02
              MO Center=  1.1D-01,  2.2D-01,  2.5D-01, r^2= 2.1D+01
   Bfn.  Coefficient  Atom+Function         Bfn.  Coefficient  Atom+Function  
  ----- ------------  ---------------      ----- ------------  ---------------
   904      4.055126   7 C  py             1711      2.739426  15 H  s         
   174      2.680456   2 C  py              758      2.686633   6 C  py        
  1789      1.842491  16 H  s              1477     -1.802159  12 H  s         
   300     -1.495986   3 C  s               592     -1.209447   5 C  s         
  1195     -1.168732   9 N  px              498      1.118411   4 C  dxx       

 Vector   45  Occ=0.000000D+00  E= 5.962284D-02
              MO Center= -1.4D-01,  9.5D-02, -1.7D-01, r^2= 1.9D+01
   Bfn.  Coefficient  Atom+Function         Bfn.  Coefficient  Atom+Function  
  ----- ------------  ---------------      ----- ------------  ---------------
   905      1.864792   7 C  pz               28      1.854423   1 C  py        
   321     -1.376121   3 C  pz             1030     -1.348973   8 O  s         
    29     -1.315919   1 C  pz              902     -1.318585   7 C  pz        
    62     -1.047918   1 C  dxz             318      1.032808   3 C  pz        
   759      1.033942   6 C  pz             1555     -1.001322  13 H  s         

 Vector   46  Occ=0.000000D+00  E= 6.401221D-02
              MO Center=  2.5D-01, -1.3D-01, -5.5D-01, r^2= 2.2D+01
   Bfn.  Coefficient  Atom+Function         Bfn.  Coefficient  Atom+Function  
  ----- ------------  ---------------      ----- ------------  ---------------
   904      2.825387   7 C  py             1555     -2.073447  13 H  s         
  1789      1.854582  16 H  s              1788     -1.784850  16 H  s         
   738     -1.773768   6 C  s               319     -1.748659   3 C  px        
  1710     -1.557941  15 H  s               757     -1.419379   6 C  px        
   174      1.388314   2 C  py             1196     -1.361983   9 N  py        

 Vector   47  Occ=0.000000D+00  E= 7.546500D-02
              MO Center=  2.1D-01,  3.8D-01,  2.6D-01, r^2= 2.1D+01
   Bfn.  Coefficient  Atom+Function         Bfn.  Coefficient  Atom+Function  
  ----- ------------  ---------------      ----- ------------  ---------------
  1321      5.853008  10 H  s               758      4.331183   6 C  py        
   174      3.963723   2 C  py              466      3.463376   4 C  py        
  1555     -3.467960  13 H  s              1477     -3.302458  12 H  s         
  1399     -3.064935  11 H  s               903     -2.731261   7 C  px        
  1711      2.504190  15 H  s              1633      2.260002  14 H  s         

 Vector   48  Occ=0.000000D+00  E= 8.256149D-02
              MO Center=  5.0D-01, -3.6D-01, -3.1D-01, r^2= 1.7D+01
   Bfn.  Coefficient  Atom+Function         Bfn.  Coefficient  Atom+Function  
  ----- ------------  ---------------      ----- ------------  ---------------
  1788      4.746914  16 H  s               611     -3.587974   5 C  px        
   319     -3.081247   3 C  px             1555     -2.564454  13 H  s         
   175     -2.462549   2 C  pz             1789     -2.368105  16 H  s         
    28      2.282554   1 C  py             1399      2.287031  11 H  s         
   154      2.241744   2 C  s                27     -2.222621   1 C  px        

 Vector   49  Occ=0.000000D+00  E= 8.703813D-02
              MO Center=  9.5D-02, -6.6D-01,  2.2D-02, r^2= 2.2D+01
   Bfn.  Coefficient  Atom+Function         Bfn.  Coefficient  Atom+Function  
  ----- ------------  ---------------      ----- ------------  ---------------
   903      4.078338   7 C  px             1789     -3.889403  16 H  s         
    28     -3.111448   1 C  py             1788      2.865040  16 H  s         
  1477      2.530268  12 H  s              1196     -2.240256   9 N  py        
  1030      1.809343   8 O  s               319     -1.794561   3 C  px        
   466     -1.708320   4 C  py             1711     -1.700542  15 H  s         

 Vector   50  Occ=0.000000D+00  E= 9.216762D-02
              MO Center=  1.8D-01,  5.3D-01,  3.0D-01, r^2= 1.7D+01
   Bfn.  Coefficient  Atom+Function         Bfn.  Coefficient  Atom+Function  
  ----- ------------  ---------------      ----- ------------  ---------------
  1399      6.596013  11 H  s              1321      5.698490  10 H  s         
    27     -5.423687   1 C  px             1555     -4.733557  13 H  s         
   319     -4.351111   3 C  px             1633     -4.248221  14 H  s         
   611     -4.014389   5 C  px             1710     -2.835250  15 H  s         
   592     -2.557693   5 C  s               173     -2.414821   2 C  px        

 Vector   51  Occ=0.000000D+00  E= 9.621138D-02
              MO Center=  9.6D-01, -2.7D-01, -2.9D-01, r^2= 2.0D+01
   Bfn.  Coefficient  Atom+Function         Bfn.  Coefficient  Atom+Function  
  ----- ------------  ---------------      ----- ------------  ---------------
  1321      4.471493  10 H  s              1788      4.336439  16 H  s         
  1399      3.633179  11 H  s              1477     -3.397534  12 H  s         
  1789     -3.237992  16 H  s               319     -3.043148   3 C  px        
  1555     -3.037045  13 H  s               154      2.816989   2 C  s         
   884      2.639586   7 C  s               173     -2.602538   2 C  px        

 Vector   52  Occ=0.000000D+00  E= 1.003038D-01
              MO Center= -8.4D-02,  1.2D+00, -1.8D-01, r^2= 1.7D+01
   Bfn.  Coefficient  Atom+Function         Bfn.  Coefficient  Atom+Function  
  ----- ------------  ---------------      ----- ------------  ---------------
  1399      6.758290  11 H  s              1555     -6.703947  13 H  s         
    27     -3.812001   1 C  px              611     -3.692666   5 C  px        
  1633     -3.704384  14 H  s               465     -3.670275   4 C  px        
   319     -3.301462   3 C  px              499      3.125780   4 C  dxy       
   613     -3.103596   5 C  pz             1321      2.591538  10 H  s         

 Vector   53  Occ=0.000000D+00  E= 1.021978D-01
              MO Center=  1.2D-01,  6.7D-01,  1.1D-01, r^2= 2.1D+01
   Bfn.  Coefficient  Atom+Function         Bfn.  Coefficient  Atom+Function  
  ----- ------------  ---------------      ----- ------------  ---------------
  1477      6.589068  12 H  s              1321     -5.071758  10 H  s         
   904      3.655284   7 C  py              466     -3.524689   4 C  py        
  1633     -3.540123  14 H  s               320     -2.922113   3 C  py        
   173      2.897481   2 C  px              757     -2.507594   6 C  px        
   758     -2.378431   6 C  py              321      2.340659   3 C  pz        

 Vector   54  Occ=0.000000D+00  E= 1.092509D-01
              MO Center= -3.7D-01, -4.8D-02, -3.1D-01, r^2= 2.4D+01
   Bfn.  Coefficient  Atom+Function         Bfn.  Coefficient  Atom+Function  
  ----- ------------  ---------------      ----- ------------  ---------------
   611      5.395687   5 C  px               27      4.296744   1 C  px        
   319      3.470095   3 C  px             1633      3.346427  14 H  s         
  1196     -3.239595   9 N  py             1555      3.134368  13 H  s         
  1711     -3.127463  15 H  s              1477     -3.069542  12 H  s         
  1398     -2.457502  11 H  s              1399     -2.442826  11 H  s         

 Vector   55  Occ=0.000000D+00  E= 1.162848D-01
              MO Center= -1.1D-01,  3.9D-01,  8.8D-02, r^2= 1.7D+01
   Bfn.  Coefficient  Atom+Function         Bfn.  Coefficient  Atom+Function  
  ----- ------------  ---------------      ----- ------------  ---------------
    29      6.839813   1 C  pz             1477      3.247517  12 H  s         
   759     -3.043004   6 C  pz              466     -2.703687   4 C  py        
  1633     -2.615756  14 H  s                27     -2.424616   1 C  px        
  1321     -2.408818  10 H  s               467      2.314321   4 C  pz        
   321     -2.043407   3 C  pz             1789      1.977094  16 H  s         

 Vector   56  Occ=0.000000D+00  E= 1.235392D-01
              MO Center=  5.7D-01,  1.6D+00,  7.2D-02, r^2= 2.1D+01
   Bfn.  Coefficient  Atom+Function         Bfn.  Coefficient  Atom+Function  
  ----- ------------  ---------------      ----- ------------  ---------------
   446     -5.415492   4 C  s               300     -5.355016   3 C  s         
    28      5.011581   1 C  py              592     -4.947338   5 C  s         
  1477      4.635916  12 H  s               738     -3.676908   6 C  s         
   154     -3.386186   2 C  s               319      3.401144   3 C  px        
  1711     -3.252121  15 H  s               498      3.047472   4 C  dxx       

 Vector   57  Occ=0.000000D+00  E= 1.276829D-01
              MO Center=  9.2D-01, -2.0D+00, -3.8D-01, r^2= 2.0D+01
   Bfn.  Coefficient  Atom+Function         Bfn.  Coefficient  Atom+Function  
  ----- ------------  ---------------      ----- ------------  ---------------
    28      8.731613   1 C  py             1477      8.051604  12 H  s         
   466     -7.324148   4 C  py             1711      7.297088  15 H  s         
   174     -6.913965   2 C  py              758     -6.890530   6 C  py        
  1633     -5.836560  14 H  s              1789     -5.243052  16 H  s         
  1196      5.144701   9 N  py             1321     -5.148096  10 H  s         

 Vector   58  Occ=0.000000D+00  E= 1.305211D-01
              MO Center=  1.4D-01,  5.4D-02, -2.0D-01, r^2= 2.2D+01
   Bfn.  Coefficient  Atom+Function         Bfn.  Coefficient  Atom+Function  
  ----- ------------  ---------------      ----- ------------  ---------------
   466     13.166848   4 C  py             1477    -12.579390  12 H  s         
   174      8.193213   2 C  py             1633      7.156248  14 H  s         
  1399      6.973991  11 H  s               320     -6.433606   3 C  py        
   758      6.189209   6 C  py              319     -5.513747   3 C  px        
  1476     -5.046568  12 H  s                28     -4.791186   1 C  py        

 Vector   59  Occ=0.000000D+00  E= 1.378811D-01
              MO Center=  4.7D-02,  8.2D-01, -3.7D-03, r^2= 2.3D+01
   Bfn.  Coefficient  Atom+Function         Bfn.  Coefficient  Atom+Function  
  ----- ------------  ---------------      ----- ------------  ---------------
  1321      9.167682  10 H  s               466      8.625086   4 C  py        
  1477     -7.649346  12 H  s              1789     -6.554892  16 H  s         
    28     -6.294487   1 C  py              174      6.164352   2 C  py        
   173     -5.872932   2 C  px              613     -3.951993   5 C  pz        
   759      3.685924   6 C  pz              592     -3.319147   5 C  s         

 Vector   60  Occ=0.000000D+00  E= 1.403945D-01
              MO Center=  4.5D-01, -7.6D-01, -2.6D-02, r^2= 2.3D+01
   Bfn.  Coefficient  Atom+Function         Bfn.  Coefficient  Atom+Function  
  ----- ------------  ---------------      ----- ------------  ---------------
   466      5.267101   4 C  py             1321      4.577482  10 H  s         
   173     -4.336777   2 C  px               29     -3.790947   1 C  pz        
  1195      3.519940   9 N  px              174      3.387213   2 C  py        
   903     -3.135420   7 C  px              612     -3.019131   5 C  py        
   900      3.020360   7 C  px              175      2.954113   2 C  pz        

 Vector   61  Occ=0.000000D+00  E= 1.447486D-01
              MO Center=  3.8D-02,  2.3D-01, -4.0D-02, r^2= 1.9D+01
   Bfn.  Coefficient  Atom+Function         Bfn.  Coefficient  Atom+Function  
  ----- ------------  ---------------      ----- ------------  ---------------
   466      8.477320   4 C  py             1555      7.168699  13 H  s         
   612     -6.135662   5 C  py             1477     -6.129567  12 H  s         
   757      5.733501   6 C  px               27     -5.588576   1 C  px        
  1399     -5.314480  11 H  s               174      4.141199   2 C  py        
   738      3.985874   6 C  s               321      3.884950   3 C  pz        

 Vector   62  Occ=0.000000D+00  E= 1.481920D-01
              MO Center= -7.0D-02, -1.7D-01, -3.0D-01, r^2= 2.4D+01
   Bfn.  Coefficient  Atom+Function         Bfn.  Coefficient  Atom+Function  
  ----- ------------  ---------------      ----- ------------  ---------------
  1477     14.270413  12 H  s               466    -10.842680   4 C  py        
   757     -7.415904   6 C  px             1633     -6.307812  14 H  s         
  1711     -5.583590  15 H  s                27      5.551348   1 C  px        
   904     -5.165269   7 C  py             1632     -4.778673  14 H  s         
  1321     -4.361930  10 H  s               174     -4.106806   2 C  py        

 Vector   63  Occ=0.000000D+00  E= 1.519378D-01
              MO Center=  5.7D-02,  1.8D+00, -7.9D-02, r^2= 2.2D+01
   Bfn.  Coefficient  Atom+Function         Bfn.  Coefficient  Atom+Function  
  ----- ------------  ---------------      ----- ------------  ---------------
   611     13.886816   5 C  px              319     12.540925   3 C  px        
  1555     11.939095  13 H  s              1399    -10.100845  11 H  s         
   612     -8.540294   5 C  py              320      6.804842   3 C  py        
  1554      6.545261  13 H  s                27      5.818151   1 C  px        
   499     -5.644431   4 C  dxy            1398     -5.571517  11 H  s         

 Vector   64  Occ=0.000000D+00  E= 1.578601D-01
              MO Center=  1.1D+00,  8.4D-01, -5.3D-02, r^2= 2.0D+01
   Bfn.  Coefficient  Atom+Function         Bfn.  Coefficient  Atom+Function  
  ----- ------------  ---------------      ----- ------------  ---------------
   466     14.684638   4 C  py             1477    -12.390211  12 H  s         
   173    -10.683664   2 C  px               27      8.324722   1 C  px        
   903     -6.468416   7 C  px              758      5.834809   6 C  py        
   612     -5.679958   5 C  py             1321      5.395438  10 H  s         
   319      5.294663   3 C  px              611      4.930397   5 C  px        

 Vector   65  Occ=0.000000D+00  E= 1.622796D-01
              MO Center= -7.1D-01,  2.8D-01,  1.0D-01, r^2= 2.0D+01
   Bfn.  Coefficient  Atom+Function         Bfn.  Coefficient  Atom+Function  
  ----- ------------  ---------------      ----- ------------  ---------------
  1633     14.548007  14 H  s               757     13.998086   6 C  px        
  1321    -12.259139  10 H  s              1555     -9.994235  13 H  s         
   611     -9.075922   5 C  px              174     -8.981609   2 C  py        
   173      8.055033   2 C  px              758      7.879127   6 C  py        
    28      6.801036   1 C  py              466      6.391921   4 C  py        

 Vector   66  Occ=0.000000D+00  E= 1.701082D-01
              MO Center=  8.1D-01,  7.8D-02, -1.3D-01, r^2= 2.1D+01
   Bfn.  Coefficient  Atom+Function         Bfn.  Coefficient  Atom+Function  
  ----- ------------  ---------------      ----- ------------  ---------------
   174     13.794983   2 C  py              173    -10.577781   2 C  px        
  1321     10.538172  10 H  s               466      9.647622   4 C  py        
  1477     -9.388017  12 H  s              1789      8.407564  16 H  s         
   175      7.185525   2 C  pz             1399     -6.228123  11 H  s         
    29     -6.166613   1 C  pz              321     -5.951151   3 C  pz        

 Vector   67  Occ=0.000000D+00  E= 1.784531D-01
              MO Center= -4.3D-02, -2.5D-01,  2.7D-01, r^2= 2.0D+01
   Bfn.  Coefficient  Atom+Function         Bfn.  Coefficient  Atom+Function  
  ----- ------------  ---------------      ----- ------------  ---------------
   758     16.764185   6 C  py               28    -13.879307   1 C  py        
   904     10.748730   7 C  py              903     -8.942550   7 C  px        
  1633      8.023749  14 H  s                27      6.187132   1 C  px        
   884      5.825901   7 C  s              1555     -5.766333  13 H  s         
   174      4.614896   2 C  py             1711      4.548741  15 H  s         

 Vector   68  Occ=0.000000D+00  E= 1.827223D-01
[...]
   Bfn.  Coefficient  Atom+Function         Bfn.  Coefficient  Atom+Function  
  ----- ------------  ---------------      ----- ------------  ---------------
  1487      3.596489  12 H  px              493     -3.011543   4 C  dxy       
  1517     -2.825944  12 H  fxyy           1514     -2.809201  12 H  fxxx      
  1519     -2.809266  12 H  fxzz           1490      2.780575  12 H  px        
  1527     -2.463846  12 H  fxyy           1524     -2.393623  12 H  fxxx      
  1529     -2.383785  12 H  fxzz           1484      2.294831  12 H  px        

 Vector 1710  Occ=0.000000D+00  E= 1.020743D+02
              MO Center=  1.6D-01,  2.4D+00,  2.6D-02, r^2= 4.7D+00
   Bfn.  Coefficient  Atom+Function         Bfn.  Coefficient  Atom+Function  
  ----- ------------  ---------------      ----- ------------  ---------------
  1410      3.581691  11 H  py             1566      3.308805  13 H  py        
  1413      2.878112  11 H  py             1437     -2.779011  11 H  fxxy      
  1442     -2.770273  11 H  fyyy           1444     -2.769245  11 H  fyzz      
  1569      2.556319  13 H  py             1593     -2.558548  13 H  fxxy      
  1598     -2.548711  13 H  fyyy           1600     -2.548391  13 H  fyzz      

 Vector 1711  Occ=0.000000D+00  E= 1.021162D+02
              MO Center= -5.4D-01,  5.2D-01, -6.6D-02, r^2= 5.5D+00
   Bfn.  Coefficient  Atom+Function         Bfn.  Coefficient  Atom+Function  
  ----- ------------  ---------------      ----- ------------  ---------------
  1644      3.346451  14 H  py             1647      2.877443  14 H  py        
   493      2.658922   4 C  dxy            1671     -2.636912  14 H  fxxy      
  1676     -2.637958  14 H  fyyy           1678     -2.631256  14 H  fyzz      
  1332     -2.395468  10 H  py             1681     -2.369707  14 H  fxxy      
  1686     -2.374164  14 H  fyyy           1688     -2.359027  14 H  fyzz      

 Vector 1712  Occ=0.000000D+00  E= 1.021598D+02
              MO Center=  5.8D-01, -5.2D-02,  9.2D-02, r^2= 4.4D+00
   Bfn.  Coefficient  Atom+Function         Bfn.  Coefficient  Atom+Function  
  ----- ------------  ---------------      ----- ------------  ---------------
  1332      3.880026  10 H  py             1335      3.575318  10 H  py        
  1359     -2.999873  10 H  fxxy           1364     -2.990697  10 H  fyyy      
  1366     -2.988908  10 H  fyzz           1644      2.963789  14 H  py        
  1374     -2.737021  10 H  fyyy           1376     -2.715392  10 H  fyzz      
  1647      2.709671  14 H  py               54     -2.689115   1 C  dxx       

 Vector 1713  Occ=0.000000D+00  E= 1.025661D+02
              MO Center=  1.2D+00, -2.9D+00, -4.7D-01, r^2= 1.1D+00
   Bfn.  Coefficient  Atom+Function         Bfn.  Coefficient  Atom+Function  
  ----- ------------  ---------------      ----- ------------  ---------------
  1722      4.668606  15 H  py             1754     -4.068950  15 H  fyyy      
  1756     -3.859111  15 H  fyzz           1749     -3.839319  15 H  fxxy      
  1764     -3.595861  15 H  fyyy           1725      3.551727  15 H  py        
  1766     -3.399938  15 H  fyzz           1759     -3.375549  15 H  fxxy      
  1719      2.889662  15 H  py             1716     -2.661970  15 H  py        

 Vector 1714  Occ=0.000000D+00  E= 1.026535D+02
              MO Center=  1.5D+00,  5.2D-02,  2.0D-01, r^2= 3.0D+00
   Bfn.  Coefficient  Atom+Function         Bfn.  Coefficient  Atom+Function  
  ----- ------------  ---------------      ----- ------------  ---------------
  1331      4.226117  10 H  px             1358     -3.602093  10 H  fxxx      
  1361     -3.600857  10 H  fxyy           1363     -3.513343  10 H  fxzz      
  1368     -3.509726  10 H  fxxx           1371     -3.515695  10 H  fxyy      
  1373     -3.320649  10 H  fxzz           1334      3.038080  10 H  px        
  1328      2.596303  10 H  px             1332     -2.428390  10 H  py        

 Vector 1715  Occ=0.000000D+00  E= 1.026563D+02
              MO Center= -3.2D-01,  2.3D+00, -4.7D-02, r^2= 4.8D+00
   Bfn.  Coefficient  Atom+Function         Bfn.  Coefficient  Atom+Function  
  ----- ------------  ---------------      ----- ------------  ---------------
  1565      3.507529  13 H  px             1409      3.161761  11 H  px        
  1592     -2.985932  13 H  fxxx           1595     -2.980416  13 H  fxyy      
  1605     -2.933623  13 H  fxyy           1597     -2.918395  13 H  fxzz      
  1602     -2.896088  13 H  fxxx           1607     -2.722833  13 H  fxzz      
  1436     -2.631238  11 H  fxxx           1439     -2.624041  11 H  fxyy      

 Vector 1716  Occ=0.000000D+00  E= 1.026886D+02
              MO Center=  7.0D-02,  9.3D-01, -9.2D-03, r^2= 6.6D+00
   Bfn.  Coefficient  Atom+Function         Bfn.  Coefficient  Atom+Function  
  ----- ------------  ---------------      ----- ------------  ---------------
  1643     -2.628633  14 H  px             1409      2.540641  11 H  px        
  1683      2.400019  14 H  fxyy           1670      2.334875  14 H  fxxx      
  1673      2.335764  14 H  fxyy           1680      2.345446  14 H  fxxx      
  1675      2.278384  14 H  fxzz           1331     -2.265288  10 H  px        
  1436     -2.220160  11 H  fxxx           1439     -2.221890  11 H  fxyy      

 Vector 1717  Occ=0.000000D+00  E= 1.026930D+02
              MO Center= -1.2D+00,  1.1D+00, -1.8D-01, r^2= 5.0D+00
   Bfn.  Coefficient  Atom+Function         Bfn.  Coefficient  Atom+Function  
  ----- ------------  ---------------      ----- ------------  ---------------
  1643      3.534224  14 H  px             1670     -2.868301  14 H  fxxx      
  1673     -2.876292  14 H  fxyy           1675     -2.791006  14 H  fxzz      
  1646      2.727098  14 H  px             1680     -2.710219  14 H  fxxx      
  1683     -2.702853  14 H  fxyy           1685     -2.635545  14 H  fxzz      
  1565     -2.590970  13 H  px             1592      2.225252  13 H  fxxx      

 Vector 1718  Occ=0.000000D+00  E= 1.027261D+02
              MO Center=  8.5D-03,  3.4D+00,  2.6D-03, r^2= 1.5D+00
   Bfn.  Coefficient  Atom+Function         Bfn.  Coefficient  Atom+Function  
  ----- ------------  ---------------      ----- ------------  ---------------
  1530     -5.236314  12 H  fyyy           1488      5.115977  12 H  py        
  1520     -4.802499  12 H  fyyy           1515     -4.615267  12 H  fxxy      
  1522     -4.636226  12 H  fyzz           1525     -4.611617  12 H  fxxy      
  1532     -4.570231  12 H  fyzz           1485      3.314188  12 H  py        
  1491      3.304322  12 H  py             1482     -3.155578  12 H  py        

 Vector 1719  Occ=0.000000D+00  E= 1.027401D+02
              MO Center=  1.5D+00, -1.9D+00, -6.1D-01, r^2= 3.0D+00
   Bfn.  Coefficient  Atom+Function         Bfn.  Coefficient  Atom+Function  
  ----- ------------  ---------------      ----- ------------  ---------------
  1799      3.384790  16 H  px             1802      3.261906  16 H  px        
  1831     -3.067477  16 H  fxzz           1826     -3.044224  16 H  fxxx      
  1829     -3.059203  16 H  fxyy           1839     -3.038561  16 H  fxyy      
  1836     -2.963204  16 H  fxxx           1841     -2.964089  16 H  fxzz      
  1175      2.754387   9 N  s              1722     -2.751147  15 H  py        

 Vector 1720  Occ=0.000000D+00  E= 1.082295D+02
              MO Center= -1.1D+00, -2.3D+00,  3.6D-01, r^2= 1.8D-01
   Bfn.  Coefficient  Atom+Function         Bfn.  Coefficient  Atom+Function  
  ----- ------------  ---------------      ----- ------------  ---------------
  1025     37.175041   8 O  s              1026     36.455758   8 O  s         
  1027     32.833727   8 O  s              1024    -32.577797   8 O  s         
  1058    -28.447747   8 O  dxx            1061    -28.220578   8 O  dyy       
  1063    -28.181548   8 O  dzz            1121    -21.534598   8 O  gxxyy     
  1123    -21.447335   8 O  gxxzz          1130    -20.731237   8 O  gyyzz     

 Vector 1721  Occ=0.000000D+00  E= 1.190590D+02
              MO Center= -7.4D-02, -1.7D+00,  2.8D-02, r^2= 1.1D-01
   Bfn.  Coefficient  Atom+Function         Bfn.  Coefficient  Atom+Function  
  ----- ------------  ---------------      ----- ------------  ---------------
   879     16.849098   7 C  s               915     -4.846055   7 C  dyy       
   917     -4.845318   7 C  dzz             912     -4.817890   7 C  dxx       
   880      4.676894   7 C  s               906     -3.907538   7 C  dxx       
   909     -3.906729   7 C  dyy             911     -3.906343   7 C  dzz       
   878     -3.393687   7 C  s                 3      3.159255   1 C  s         

 Vector 1722  Occ=0.000000D+00  E= 1.191252D+02
              MO Center=  4.0D-02,  6.8D-02,  1.5D-02, r^2= 9.1D-01
   Bfn.  Coefficient  Atom+Function         Bfn.  Coefficient  Atom+Function  
  ----- ------------  ---------------      ----- ------------  ---------------
     3     14.723710   1 C  s               149     -5.292668   2 C  s         
    36     -4.270445   1 C  dxx              39     -4.271628   1 C  dyy       
    41     -4.246569   1 C  dzz               4      4.035716   1 C  s         
   733     -3.891882   6 C  s                30     -3.415525   1 C  dxx       
    33     -3.417377   1 C  dyy              35     -3.417312   1 C  dzz       

 Vector 1723  Occ=0.000000D+00  E= 1.191318D+02
              MO Center=  4.6D-01,  1.1D+00,  7.6D-02, r^2= 1.8D+00
   Bfn.  Coefficient  Atom+Function         Bfn.  Coefficient  Atom+Function  
  ----- ------------  ---------------      ----- ------------  ---------------
   149      9.430611   2 C  s               441      8.074040   4 C  s         
     3      7.805949   1 C  s               295     -7.233135   3 C  s         
   587     -4.215826   5 C  s               185     -2.744930   2 C  dyy       
   182     -2.711768   2 C  dxx             187     -2.719026   2 C  dzz       
   150      2.597442   2 C  s               733      2.505480   6 C  s         

 Vector 1724  Occ=0.000000D+00  E= 1.191370D+02
              MO Center=  2.8D-01,  1.2D+00,  4.5D-02, r^2= 1.9D+00
   Bfn.  Coefficient  Atom+Function         Bfn.  Coefficient  Atom+Function  
  ----- ------------  ---------------      ----- ------------  ---------------
   149     12.313988   2 C  s               587      9.650851   5 C  s         
   441     -4.734804   4 C  s               295      4.326454   3 C  s         
   185     -3.548008   2 C  dyy             182     -3.528704   2 C  dxx       
   187     -3.530844   2 C  dzz             150      3.373305   2 C  s         
   176     -2.858672   2 C  dxx             179     -2.859362   2 C  dyy       

 Vector 1725  Occ=0.000000D+00  E= 1.191399D+02
              MO Center= -5.9D-02,  1.2D+00,  1.2D-03, r^2= 2.0D+00
   Bfn.  Coefficient  Atom+Function         Bfn.  Coefficient  Atom+Function  
  ----- ------------  ---------------      ----- ------------  ---------------
   295     11.591728   3 C  s               733     11.220917   6 C  s         
   587     -4.932842   5 C  s               331     -3.346155   3 C  dyy       
   328     -3.325045   3 C  dxx             333     -3.323822   3 C  dzz       
   769     -3.255324   6 C  dyy             766     -3.222733   6 C  dxx       
   771     -3.226024   6 C  dzz             296      3.164004   3 C  s         

 Vector 1726  Occ=0.000000D+00  E= 1.191457D+02
              MO Center= -1.6D-01,  2.3D+00, -1.1D-02, r^2= 7.8D-01
   Bfn.  Coefficient  Atom+Function         Bfn.  Coefficient  Atom+Function  
  ----- ------------  ---------------      ----- ------------  ---------------
   441     13.588574   4 C  s               587      8.310067   5 C  s         
   295      4.859717   3 C  s               474     -3.892957   4 C  dxx       
   477     -3.876654   4 C  dyy             479     -3.882127   4 C  dzz       
   442      3.708031   4 C  s               149     -3.329460   2 C  s         
   468     -3.155257   4 C  dxx             471     -3.155596   4 C  dyy       

 Vector 1727  Occ=0.000000D+00  E= 1.191476D+02
              MO Center= -6.5D-01,  1.2D+00, -8.9D-02, r^2= 1.6D+00
   Bfn.  Coefficient  Atom+Function         Bfn.  Coefficient  Atom+Function  
  ----- ------------  ---------------      ----- ------------  ---------------
   733     11.704096   6 C  s               587      8.969515   5 C  s         
   295     -7.305790   3 C  s               766     -3.361177   6 C  dxx       
   769     -3.367654   6 C  dyy             771     -3.364967   6 C  dzz       
   734      3.222306   6 C  s               441     -3.116091   4 C  s         
   149     -3.023550   2 C  s               760     -2.722358   6 C  dxx       

 Vector 1728  Occ=0.000000D+00  E= 1.863068D+02
              MO Center=  1.0D+00, -2.4D+00, -3.1D-01, r^2= 3.1D-02
   Bfn.  Coefficient  Atom+Function         Bfn.  Coefficient  Atom+Function  
  ----- ------------  ---------------      ----- ------------  ---------------
  1171     11.344722   9 N  s              1267      5.534934   9 N  gxxyy     
  1269      4.750448   9 N  gxxzz          1276      4.749086   9 N  gyyzz     
  1169     -3.790879   9 N  s              1210     -3.490591   9 N  dxx       
  1213     -3.348659   9 N  dyy            1198     -3.152735   9 N  dxx       
  1201     -3.145974   9 N  dyy            1203     -3.114967   9 N  dzz       

 Vector 1729  Occ=0.000000D+00  E= 2.689308D+02
              MO Center= -1.1D+00, -2.3D+00,  3.6D-01, r^2= 1.4D-02
   Bfn.  Coefficient  Atom+Function         Bfn.  Coefficient  Atom+Function  
  ----- ------------  ---------------      ----- ------------  ---------------
  1025     12.504144   8 O  s              1026      9.170795   8 O  s         
  1058     -6.784209   8 O  dxx            1061     -6.782542   8 O  dyy       
  1063     -6.782833   8 O  dzz            1027      5.699782   8 O  s         
  1052     -3.989036   8 O  dxx            1055     -3.989189   8 O  dyy       
  1057     -3.989154   8 O  dzz            1023     -3.746571   8 O  s         


 center of mass
 --------------
 x =  -0.04199714 y =  -0.04681664 z =   0.01723421

 moments of inertia (a.u.)
 ------------------
        1484.548495941608           0.000000000000          -0.000000000000
           0.000000000000         472.084254079844           0.000000000000
          -0.000000000000           0.000000000000        1912.633700067753

     Multipole analysis of the density
     ---------------------------------

     L   x y z        total         alpha         beta         nuclear
     -   - - -        -----         -----         ----         -------
     0   0 0 0     -0.000000    -32.000000    -32.000000     64.000000

     1   1 0 0      1.237893      0.618946      0.618946     -0.000000
     1   0 1 0      0.541737      0.270869      0.270869      0.000000
     1   0 0 1     -0.583580     -0.291790     -0.291790      0.000000

     2   2 0 0    -36.223017   -150.425973   -150.425973    264.628929
     2   1 1 0     -6.677362      2.712966      2.712966    -12.103294
     2   1 0 1      0.279946     -0.649244     -0.649244      1.578433
     2   0 2 0    -36.120818   -419.366675   -419.366675    802.612533
     2   0 1 1      2.915839     -1.026813     -1.026813      4.969464
     2   0 0 2    -41.282473    -27.188569    -27.188569     13.094665


 Task  times  cpu:    81831.5s     wall:    82275.4s


                                NWChem Input Module
                                -------------------


 Summary of allocated global arrays
-----------------------------------
  No active global arrays



                         GA Statistics for process    0
                         ------------------------------

       create   destroy   get      put      acc     scatter   gather  read&inc
calls:  376      376     4.05e+04 1.01e+04 2.05e+04    0        0     1907     
number of processes/call 1.45e+00 1.39e+00 1.19e+00 0.00e+00 0.00e+00
bytes total:             7.74e+09 1.76e+09 3.32e+09 0.00e+00 0.00e+00 1.53e+04
bytes remote:            4.17e+09 1.26e+09 1.22e+09 0.00e+00 0.00e+00 0.00e+00
Max memory consumed for GA by this process: 106000416 bytes

MA_summarize_allocated_blocks: starting scan ...
MA_summarize_allocated_blocks: scan completed: 0 heap blocks, 0 stack blocks
MA usage statistics:

	allocation statistics:
					      heap	     stack
					      ----	     -----
	current number of blocks	         0	         0
	maximum number of blocks	        20	        68
	current total bytes		         0	         0
	maximum total bytes		    724464	 218420440
	maximum total K-bytes		       725	    218421
	maximum total M-bytes		         1	       219

	calls per routine:
		        49  MA_alloc_get
		        49  MA_allocate_heap
		      2095  MA_chop_stack
		        49  MA_free_heap
		         0  MA_free_heap_piece
		   2924167  MA_get_index
		         5  MA_get_mbase
		         0  MA_get_next_memhandle
		         0  MA_get_numalign
		        93  MA_get_pointer
		         1  MA_init
		         0  MA_initialized
		         0  MA_init_memhandle_iterator
		       276  MA_inquire_avail
		         2  MA_inquire_heap
		         0  MA_inquire_heap_check_stack
		         0  MA_inquire_heap_no_partition
		         2  MA_inquire_stack
		         0  MA_inquire_stack_check_heap
		         0  MA_inquire_stack_no_partition
		   2918990  MA_pop_stack
		         1  MA_print_stats
		   2924118  MA_push_get
		   2924211  MA_push_stack
		         3  MA_set_auto_verify
		         1  MA_set_error_print
		         3  MA_set_hard_fail
		         1  MA_set_numalign
		     39110  MA_sizeof
		        24  MA_sizeof_overhead
		         1  MA_summarize_allocated_blocks
		         0  MA_trace
		   8809065  MA_verify_allocator_stuff


                                     CITATION
                                     --------
                Please cite the following reference when publishing
                           results obtained with NWChem:

                 M. Valiev, E.J. Bylaska, N. Govind, K. Kowalski,
              T.P. Straatsma, H.J.J. van Dam, D. Wang, J. Nieplocha,
                        E. Apra, T.L. Windus, W.A. de Jong
                 "NWChem: a comprehensive and scalable open-source
                  solution for large scale molecular simulations"
                      Comput. Phys. Commun. 181, 1477 (2010)
                           doi:10.1016/j.cpc.2010.04.018

                                      AUTHORS
                                      -------
          E. Apra, E. J. Bylaska, W. A. de Jong, N. Govind, K. Kowalski,
       T. P. Straatsma, M. Valiev, H. J. J. van Dam, D. Wang, T. L. Windus,
        J. Hammond, J. Autschbach, K. Bhaskaran-Nair, J. Brabec, K. Lopata,
    S. A. Fischer, S. Krishnamoorthy, M. Jacquelin, W. Ma, M. Klemm, O. Villa,
      Y. Chen, V. Anisimov, F. Aquino, S. Hirata, M. T. Hackler, V. Konjkov,
            D. Mejia-Rodriguez, T. Risthaus, M. Malagoli, A. Marenich,
   A. Otero-de-la-Roza, J. Mullin, P. Nichols, R. Peverati, J. Pittner, Y. Zhao,
        P.-D. Fan, A. Fonari, M. J. Williamson, R. J. Harrison, J. R. Rehr,
      M. Dupuis, D. Silverstein, D. M. A. Smith, J. Nieplocha, V. Tipparaju,
    M. Krishnan, B. E. Van Kuiken, A. Vazquez-Mayagoitia, L. Jensen, M. Swart,
      Q. Wu, T. Van Voorhis, A. A. Auer, M. Nooijen, L. D. Crosby, E. Brown,
      G. Cisneros, G. I. Fann, H. Fruchtl, J. Garza, K. Hirao, R. A. Kendall,
      J. A. Nichols, K. Tsemekhman, K. Wolinski, J. Anchell, D. E. Bernholdt,
      P. Borowski, T. Clark, D. Clerc, H. Dachsel, M. J. O. Deegan, K. Dyall,
    D. Elwood, E. Glendening, M. Gutowski, A. C. Hess, J. Jaffe, B. G. Johnson,
     J. Ju, R. Kobayashi, R. Kutteh, Z. Lin, R. Littlefield, X. Long, B. Meng,
      T. Nakajima, S. Niu, L. Pollack, M. Rosing, K. Glaesemann, G. Sandrone,
      M. Stave, H. Taylor, G. Thomas, J. H. van Lenthe, A. T. Wong, Z. Zhang.

 Total times  cpu:    81831.5s     wall:    82275.7s
