 argument  1 = gs_pc2.inp
                                         
                                         


              Northwest Computational Chemistry Package (NWChem) 6.8
              ------------------------------------------------------


                    Environmental Molecular Sciences Laboratory
                       Pacific Northwest National Laboratory
                                Richland, WA 99352

                              Copyright (c) 1994-2017
                       Pacific Northwest National Laboratory
                            Battelle Memorial Institute

             NWChem is an open-source computational chemistry package
                        distributed under the terms of the
                      Educational Community License (ECL) 2.0
             A copy of the license is included with this distribution
                              in the LICENSE.TXT file

                                  ACKNOWLEDGMENT
                                  --------------

            This software and its documentation were developed at the
            EMSL at Pacific Northwest National Laboratory, a multiprogram
            national laboratory, operated for the U.S. Department of Energy
            by Battelle under Contract Number DE-AC05-76RL01830. Support
            for this work was provided by the Department of Energy Office
            of Biological and Environmental Research, Office of Basic
            Energy Sciences, and the Office of Advanced Scientific Computing.


           Job information
           ---------------

    hostname        = gl3351.arc-ts.umich.edu
    program         = nwchem
    date            = Mon Jun 21 15:19:06 2021

    compiled        = Thu_Sep_05_08:38:08_2019
    source          = /var/software/raeker/nwchem-6.8.1
    nwchem branch   = 6.8.1
    nwchem revision = v6.8-133-ge032219
    ga revision     = 5.6.5
    use scalapack   = F
    input           = gs_pc2.inp
    prefix          = benzamide_pc2_DIIS.
    data base       = ./benzamide_pc2_DIIS.db
    status          = startup
    nproc           =       36
    time left       =     -1s



           Memory information
           ------------------

    heap     =  131071994 doubles =   1000.0 Mbytes
    stack    =  131071999 doubles =   1000.0 Mbytes
    global   =  262144000 doubles =   2000.0 Mbytes (distinct from heap & stack)
    total    =  524287993 doubles =   4000.0 Mbytes
    verify   = yes
    hardfail = no 


           Directory information
           ---------------------

  0 permanent = .
  0 scratch   = .




                                NWChem Input Module
                                -------------------


                 benzamide DIIS in pc-2 basis set with grid medium
                 -------------------------------------------------
 C1  symmetry detected

          ------
          auto-z
          ------


                             Geometry "geometry" -> ""
                             -------------------------

 Output coordinates in a.u. (scale by  1.000000000 to convert to a.u.)

  No.       Tag          Charge          X              Y              Z
 ---- ---------------- ---------- -------------- -------------- --------------
    1 C                    6.0000    -0.03614211    -0.42053916     0.01126238
    2 C                    6.0000     2.22682459     0.90517052     0.33137610
    3 C                    6.0000     2.22992887     3.53827291     0.35148544
    4 C                    6.0000    -0.02480912     4.85824384     0.02734558
    5 C                    6.0000    -2.28089903     3.54226215    -0.33191181
    6 C                    6.0000    -2.28936248     0.91463370    -0.32032235
    7 C                    6.0000    -0.14244891    -3.24634049     0.05524001
    8 O                    8.0000    -2.11732895    -4.34932595     0.68655829
    9 N                    7.0000     1.95702837    -4.49657036    -0.59018118
   10 H                    1.0000     3.99204501    -0.11393705     0.60632692
   11 H                    1.0000     3.99538978     4.54427784     0.62146220
   12 H                    1.0000    -0.03007003     6.90519702     0.03786346
   13 H                    1.0000    -4.04552126     4.55957129    -0.62368055
   14 H                    1.0000    -4.03594231    -0.13380540    -0.55478304
   15 H                    1.0000     1.87234178    -6.42341934    -0.69532107
   16 H                    1.0000     3.39263918    -3.61750506    -1.49991825

      Atomic Mass 
      ----------- 

      C                 12.000000
      O                 15.994910
      N                 14.003070
      H                  1.007825


 Effective nuclear repulsion energy (a.u.)     405.0018246615

            Nuclear Dipole moment (a.u.) 
            ----------------------------
        X                 Y               Z
 ---------------- ---------------- ----------------
    -0.0000000000     0.0000000000     0.0000000000



                                Z-matrix (autoz)
                                -------- 

 Units are Angstrom for bonds and degrees for angles

      Type          Name      I     J     K     L     M      Value
      ----------- --------  ----- ----- ----- ----- ----- ----------
    1 Stretch                  1     2                       1.39817
    2 Stretch                  1     6                       1.39703
    3 Stretch                  1     7                       1.49659
    4 Stretch                  2     3                       1.39342
    5 Stretch                  2    10                       1.08838
    6 Stretch                  3     4                       1.39318
    7 Stretch                  3    11                       1.08472
    8 Stretch                  4     5                       1.39514
    9 Stretch                  4    12                       1.08322
   10 Stretch                  5     6                       1.39050
   11 Stretch                  5    13                       1.08886
   12 Stretch                  6    14                       1.08510
   13 Stretch                  7     8                       1.24275
   14 Stretch                  7     9                       1.33741
   15 Stretch                  9    15                       1.02214
   16 Stretch                  9    16                       1.01256
   17 Bend                     1     2     3               120.24328
   18 Bend                     1     2    10               120.17661
   19 Bend                     1     6     5               120.23471
   20 Bend                     1     6    14               118.86492
   21 Bend                     1     7     8               120.33553
   22 Bend                     1     7     9               117.32751
   23 Bend                     2     1     6               119.50233
   24 Bend                     2     1     7               122.11685
   25 Bend                     2     3     4               119.96071
   26 Bend                     2     3    11               119.52362
   27 Bend                     3     2    10               119.56752
   28 Bend                     3     4     5               119.95974
   29 Bend                     3     4    12               120.19411
   30 Bend                     4     3    11               120.51566
   31 Bend                     4     5     6               120.08597
   32 Bend                     4     5    13               120.42491
   33 Bend                     5     4    12               119.84423
   34 Bend                     5     6    14               120.89919
   35 Bend                     6     1     7               118.37228
   36 Bend                     6     5    13               119.48912
   37 Bend                     7     9    15               118.09611
   38 Bend                     7     9    16               121.15836
   39 Bend                     8     7     9               122.33560
   40 Bend                    15     9    16               117.72972
   41 Torsion                  1     2     3     4          -0.62048
   42 Torsion                  1     2     3    11         179.34918
   43 Torsion                  1     6     5     4          -0.99896
   44 Torsion                  1     6     5    13         178.97968
   45 Torsion                  1     7     9    15        -175.53391
   46 Torsion                  1     7     9    16         -15.62223
   47 Torsion                  2     1     6     5           0.00235
   48 Torsion                  2     1     6    14        -179.60577
   49 Torsion                  2     1     7     8         153.60719
   50 Torsion                  2     1     7     9         -25.97997
   51 Torsion                  2     3     4     5          -0.37831
   52 Torsion                  2     3     4    12        -179.87256
   53 Torsion                  3     2     1     6           0.80783
   54 Torsion                  3     2     1     7        -178.11158
   55 Torsion                  3     4     5     6           1.18781
   56 Torsion                  3     4     5    13        -178.79062
   57 Torsion                  4     3     2    10        -179.33222
   58 Torsion                  4     5     6    14         178.60109
   59 Torsion                  5     4     3    11         179.65234
   60 Torsion                  5     6     1     7         178.96219
   61 Torsion                  6     1     2    10         179.51168
   62 Torsion                  6     1     7     8         -25.32394
   63 Torsion                  6     1     7     9         155.08890
   64 Torsion                  6     5     4    12        -179.31615
   65 Torsion                  7     1     2    10           0.59227
   66 Torsion                  7     1     6    14          -0.64594
   67 Torsion                  8     7     9    15           4.88780
   68 Torsion                  8     7     9    16         164.79948
   69 Torsion                 10     2     3    11           0.63743
   70 Torsion                 11     3     4    12           0.15809
   71 Torsion                 12     4     5    13           0.70542
   72 Torsion                 13     5     6    14          -1.42027


            XYZ format geometry
            -------------------
    16
 geometry
 C                    -0.01912558    -0.22253976     0.00595980
 C                     1.17838491     0.47899564     0.17535669
 C                     1.18002763     1.87237352     0.18599810
 C                    -0.01312842     2.57087211     0.01447066
 C                    -1.20699987     1.87448454    -0.17564018
 C                    -1.21147854     0.48400335    -0.16950730
 C                    -0.07538072    -1.71788953     0.02923176
 O                    -1.12044231    -2.30156434     0.36331103
 N                     1.03561489    -2.37948273    -0.31231045
 H                     2.11249939    -0.06029289     0.32085441
 H                     2.11426937     2.40472845     0.32886366
 H                    -0.01591238     3.65407316     0.02003648
 H                    -2.14079781     2.41282139    -0.33003756
 H                    -2.13572885    -0.07080677    -0.29357856
 H                     0.99080067    -3.39912738    -0.36794809
 H                     1.79530747    -1.91430137    -0.79372261

 ==============================================================================
                                internuclear distances
 ------------------------------------------------------------------------------
       center one      |      center two      | atomic units |       a.u.
 ------------------------------------------------------------------------------
    2 C                |   1 C                |     2.64216  |     2.64216
    3 C                |   2 C                |     2.63318  |     2.63318
    4 C                |   3 C                |     2.63272  |     2.63272
    5 C                |   4 C                |     2.63644  |     2.63644
    6 C                |   1 C                |     2.64001  |     2.64001
    6 C                |   5 C                |     2.62767  |     2.62767
    7 C                |   1 C                |     2.82814  |     2.82814
    8 O                |   7 C                |     2.34847  |     2.34847
    9 N                |   7 C                |     2.52734  |     2.52734
   10 H                |   2 C                |     2.05674  |     2.05674
   11 H                |   3 C                |     2.04983  |     2.04983
   12 H                |   4 C                |     2.04699  |     2.04699
   13 H                |   5 C                |     2.05765  |     2.05765
   14 H                |   6 C                |     2.05055  |     2.05055
   15 H                |   9 N                |     1.93157  |     1.93157
   16 H                |   9 N                |     1.91347  |     1.91347
 ------------------------------------------------------------------------------
                         number of included internuclear distances:         16
 ==============================================================================



 ==============================================================================
                                 internuclear angles
 ------------------------------------------------------------------------------
        center 1       |       center 2       |       center 3       |  degrees
 ------------------------------------------------------------------------------
    2 C                |   1 C                |   6 C                |   119.50
    2 C                |   1 C                |   7 C                |   122.12
    6 C                |   1 C                |   7 C                |   118.37
    1 C                |   2 C                |   3 C                |   120.24
    1 C                |   2 C                |  10 H                |   120.18
    3 C                |   2 C                |  10 H                |   119.57
    2 C                |   3 C                |   4 C                |   119.96
    2 C                |   3 C                |  11 H                |   119.52
    4 C                |   3 C                |  11 H                |   120.52
    3 C                |   4 C                |   5 C                |   119.96
    3 C                |   4 C                |  12 H                |   120.19
    5 C                |   4 C                |  12 H                |   119.84
    4 C                |   5 C                |   6 C                |   120.09
    4 C                |   5 C                |  13 H                |   120.42
    6 C                |   5 C                |  13 H                |   119.49
    1 C                |   6 C                |   5 C                |   120.23
    1 C                |   6 C                |  14 H                |   118.86
    5 C                |   6 C                |  14 H                |   120.90
    1 C                |   7 C                |   8 O                |   120.34
    1 C                |   7 C                |   9 N                |   117.33
    8 O                |   7 C                |   9 N                |   122.34
    7 C                |   9 N                |  15 H                |   118.10
    7 C                |   9 N                |  16 H                |   121.16
   15 H                |   9 N                |  16 H                |   117.73
 ------------------------------------------------------------------------------
                            number of included internuclear angles:         24
 ==============================================================================



  library name resolved from: environment
  library file name is: </sw/arcts/centos7/nwchem/6.8.1/gcc/8.2.0-mpi/data/libraries/>
  

 **** WARNING Zero Coefficient **** on atom "               C"
 angular momentum value: 0  standard basis set name: "pc-2"
 input line that generated warning:
   126:       0.785710E+04           0.568250E-03           0.000000E+00
  

 **** WARNING Zero Coefficient **** on atom "               C"
 angular momentum value: 0  standard basis set name: "pc-2"
 input line that generated warning:
   133:       0.822020E+00           0.000000E+00           0.216890E+00
  

 **** WARNING Zero Coefficient **** on atom "               O"
 angular momentum value: 0  standard basis set name: "pc-2"
 input line that generated warning:
   186:       0.147820E+05           0.535190E-03           0.000000E+00
  

 **** WARNING Zero Coefficient **** on atom "               O"
 angular momentum value: 0  standard basis set name: "pc-2"
 input line that generated warning:
   193:       0.167180E+01           0.000000E+00           0.209400E+00
  

 **** WARNING Zero Coefficient **** on atom "               N"
 angular momentum value: 0  standard basis set name: "pc-2"
 input line that generated warning:
   156:       0.111010E+05           0.545700E-03           0.000000E+00
  

 **** WARNING Zero Coefficient **** on atom "               N"
 angular momentum value: 0  standard basis set name: "pc-2"
 input line that generated warning:
   163:       0.124040E+01           0.000000E+00           0.198820E+00
  
                      Basis "ao basis" -> "" (cartesian)
                      -----
  C (Carbon)
  ----------
            Exponent  Coefficients 
       -------------- ---------------------------------------------------------
  1 S  7.85710000E+03  0.000568
  1 S  1.17870000E+03  0.004392
  1 S  2.68320000E+02  0.022504
  1 S  7.59480000E+01  0.086653
  1 S  2.45590000E+01  0.244050
  1 S  8.62120000E+00  0.441480
  1 S  3.12780000E+00  0.353320

  2 S  1.17870000E+03 -0.000001
  2 S  2.68320000E+02 -0.000063
  2 S  7.59480000E+01 -0.000758
  2 S  2.45590000E+01 -0.007331
  2 S  8.62120000E+00 -0.038932
  2 S  3.12780000E+00 -0.088908
  2 S  8.22020000E-01  0.216890

  3 S  3.30170000E-01  1.000000

  4 S  1.14630000E-01  1.000000

  5 P  3.37750000E+01  0.006029
  5 P  7.67660000E+00  0.043228
  5 P  2.23570000E+00  0.163010
  5 P  7.64470000E-01  0.365040

  6 P  2.62320000E-01  1.000000

  7 P  8.46380000E-02  1.000000

  8 D  1.40000000E+00  1.000000

  9 D  4.50000000E-01  1.000000

 10 F  9.50000000E-01  1.000000

  O (Oxygen)
  ----------
            Exponent  Coefficients 
       -------------- ---------------------------------------------------------
  1 S  1.47820000E+04  0.000535
  1 S  2.21730000E+03  0.004138
  1 S  5.04740000E+02  0.021245
  1 S  1.42870000E+02  0.082453
  1 S  4.63000000E+01  0.236710
  1 S  1.63370000E+01  0.440390
  1 S  5.98280000E+00  0.364650

  2 S  2.21730000E+03 -0.000002
  2 S  5.04740000E+02 -0.000058
  2 S  1.42870000E+02 -0.000795
  2 S  4.63000000E+01 -0.007313
  2 S  1.63370000E+01 -0.040574
  2 S  5.98280000E+00 -0.091594
  2 S  1.67180000E+00  0.209400

  3 S  6.46620000E-01  1.000000

  4 S  2.16690000E-01  1.000000

  5 P  6.04240000E+01  0.006895
  5 P  1.39350000E+01  0.049005
  5 P  4.15310000E+00  0.182550
  5 P  1.41580000E+00  0.376330

  6 P  4.75490000E-01  1.000000

  7 P  1.45290000E-01  1.000000

  8 D  2.20000000E+00  1.000000

  9 D  6.50000000E-01  1.000000

 10 F  1.10000000E+00  1.000000

  N (Nitrogen)
  ------------
            Exponent  Coefficients 
       -------------- ---------------------------------------------------------
  1 S  1.11010000E+04  0.000546
  1 S  1.66530000E+03  0.004218
  1 S  3.79080000E+02  0.021645
  1 S  1.07300000E+02  0.083776
  1 S  3.47470000E+01  0.238810
  1 S  1.22490000E+01  0.439940
  1 S  4.47430000E+00  0.363640

  2 S  1.66530000E+03 -0.000002
  2 S  3.79080000E+02 -0.000059
  2 S  1.07300000E+02 -0.000775
  2 S  3.47470000E+01 -0.007216
  2 S  1.22490000E+01 -0.039338
  2 S  4.47430000E+00 -0.090611
  2 S  1.24040000E+00  0.198820

  3 S  4.87430000E-01  1.000000

  4 S  1.64840000E-01  1.000000

  5 P  4.79340000E+01  0.006171
  5 P  1.09990000E+01  0.044260
  5 P  3.24720000E+00  0.168250
  5 P  1.11140000E+00  0.368480

  6 P  3.79880000E-01  1.000000

  7 P  1.20680000E-01  1.000000

  8 D  1.80000000E+00  1.000000

  9 D  5.50000000E-01  1.000000

 10 F  1.02000000E+00  1.000000

  H (Hydrogen)
  ------------
            Exponent  Coefficients 
       -------------- ---------------------------------------------------------
  1 S  7.54230000E+01  0.002407
  1 S  1.13500000E+01  0.018487
  1 S  2.59930000E+00  0.089742
  1 S  7.35130000E-01  0.281110

  2 S  2.31670000E-01  1.000000

  3 S  7.41470000E-02  1.000000

  4 P  1.60000000E+00  1.000000

  5 P  4.50000000E-01  1.000000

  6 D  1.25000000E+00  1.000000



 Summary of "ao basis" -> "" (cartesian)
 ------------------------------------------------------------------------------
       Tag                 Description            Shells   Functions and Types
 ---------------- ------------------------------  ------  ---------------------
 C                            pc-2                  10       35   4s3p2d1f
 O                            pc-2                  10       35   4s3p2d1f
 N                            pc-2                  10       35   4s3p2d1f
 H                            pc-2                   6       15   3s2p1d


  pbe96 is a nonlocal functional; adding pw91lda local functional. 

                                 NWChem DFT Module
                                 -----------------


                 benzamide DIIS in pc-2 basis set with grid medium




 Summary of "ao basis" -> "ao basis" (cartesian)
 ------------------------------------------------------------------------------
       Tag                 Description            Shells   Functions and Types
 ---------------- ------------------------------  ------  ---------------------
 C                            pc-2                  10       35   4s3p2d1f
 O                            pc-2                  10       35   4s3p2d1f
 N                            pc-2                  10       35   4s3p2d1f
 H                            pc-2                   6       15   3s2p1d


  Caching 1-el integrals 

            General Information
            -------------------
          SCF calculation type: DFT
          Wavefunction type:  closed shell.
          No. of atoms     :    16
          No. of electrons :    64
           Alpha electrons :    32
            Beta electrons :    32
          Charge           :     0
          Spin multiplicity:     1
          Use of symmetry is: off; symmetry adaption is: off
          Maximum number of iterations: 100
          This is a Direct SCF calculation.
          AO basis - number of functions:   420
                     number of shells:   132
          Convergence on energy requested:  1.00D-06
          Convergence on density requested:  1.00D-06
          Convergence on gradient requested:  5.00D-04

              XC Information
              --------------
          PerdewBurkeErnzerhof Exchange Functional  1.000          
            Perdew 1991 LDA Correlation Functional  1.000 local    
           PerdewBurkeErnz. Correlation Functional  1.000 non-local

             Grid Information
             ----------------
          Grid used for XC integration:  medium    
          Radial quadrature: Mura-Knowles        
          Angular quadrature: Lebedev. 
          Tag              B.-S. Rad. Rad. Pts. Rad. Cut. Ang. Pts.
          ---              ---------- --------- --------- ---------
          C                   0.70       49          15.0       434
          O                   0.60       49          15.0       434
          N                   0.65       49          15.0       434
          H                   0.35       45          16.0       434
          Grid pruning is: on 
          Number of quadrature shells:   756
          Spatial weights used:  Erf1

          Convergence Information
          -----------------------
          Convergence aids based upon iterative change in 
          total energy or number of iterations. 
          Levelshifting, if invoked, occurs when the 
          HOMO/LUMO gap drops below (HL_TOL):  1.00D-02
          DIIS, if invoked, will attempt to extrapolate 
          using up to (NFOCK): 10 stored Fock matrices.

                    Damping( 0%)  Levelshifting(0.5)       DIIS
                  --------------- ------------------- ---------------
          dE  on:    start            ASAP                start   
          dE off:    2 iters        100 iters           100 iters 

          Smearing applied:  0.16D-02 (hartree)

      Screening Tolerance Information
      -------------------------------
          Density screening/tol_rho:  1.00D-10
          AO Gaussian exp screening on grid/accAOfunc:  14
          CD Gaussian exp screening on grid/accCDfunc:  20
          XC Gaussian exp screening on grid/accXCfunc:  20
          Schwarz screening/accCoul:  1.00D-08


      Superposition of Atomic Density Guess
      -------------------------------------

 Sum of atomic energies:        -396.27615008

      Non-variational initial energy
      ------------------------------

 Total energy =    -402.311929
 1-e energy   =   -1337.734423
 2-e energy   =     530.420669
 HOMO         =      -0.312515
 LUMO         =      -0.052732

   Time after variat. SCF:      2.6
   Time prior to 1st pass:      2.6

 Grid_pts file          = ./benzamide_pc2_DIIS.gridpts.00
 Record size in doubles =  12289        No. of grid_pts per rec  =   3070
 Max. records in memory =      5        Max. recs in file   = 258173493

 sigma=  0.16D-02 eFermi= -0.08045 T*S= -2.40E-14 nel(1)=   64.00 nel(

           Memory utilization after 1st SCF pass: 
           Heap Space remaining (MW):      131.00           131000850
          Stack Space remaining (MW):      131.07           131069092

   convergence    iter        energy       DeltaE   RMS-Dens  Diis-err    time
 ---------------- ----- ----------------- --------- --------- ---------  ------
 d= 0,ls=0.0,diis     1   -400.4425200488 -8.05D+02  7.33D-03  3.12D+00    12.8
 sigma=  0.16D-02 eFermi= -0.09682 T*S=  0.00E+00 nel(1)=   64.00 nel(
 d= 0,ls=0.0,diis     2   -399.0593679402  1.38D+00  7.04D-03  1.34D+01    22.4
 sigma=  0.16D-02 eFermi= -0.08204 T*S=  0.00E+00 nel(1)=   64.00 nel(
 d= 0,ls=0.0,diis     3   -400.4679925900 -1.41D+00  1.85D-03  1.64D+00    31.1
 sigma=  0.16D-02 eFermi= -0.09316 T*S=  0.00E+00 nel(1)=   64.00 nel(
 d= 0,ls=0.0,diis     4   -400.6041828268 -1.36D-01  9.51D-04  2.77D-01    40.8
 sigma=  0.16D-02 eFermi= -0.08181 T*S= -2.15E-12 nel(1)=   64.00 nel(
 d= 0,ls=0.0,diis     5   -400.6212710799 -1.71D-02  5.42D-04  1.04D-01    49.2
 sigma=  0.16D-02 eFermi= -0.14553 T*S=  0.00E+00 nel(1)=   64.00 nel(
  Resetting Diis
 d= 0,ls=0.0,diis     6   -400.6315397216 -1.03D-02  1.98D-04  1.69D-02    58.3
 sigma=  0.16D-02 eFermi= -0.08631 T*S=  0.00E+00 nel(1)=   64.00 nel(
 d= 0,ls=0.0,diis     7   -400.6337592322 -2.22D-03  1.95D-04  1.39D-03    67.9
 sigma=  0.16D-02 eFermi= -0.08333 T*S= -2.96E-14 nel(1)=   64.00 nel(
 d= 0,ls=0.0,diis     8   -400.6325029489  1.26D-03  1.31D-04  1.23D-02    77.8
 sigma=  0.16D-02 eFermi= -0.08407 T*S= -5.43E-16 nel(1)=   64.00 nel(
 d= 0,ls=0.0,diis     9   -400.6339242269 -1.42D-03  1.87D-05  1.51D-04    87.2
 sigma=  0.16D-02 eFermi= -0.08380 T*S= -4.40E-15 nel(1)=   64.00 nel(
 d= 0,ls=0.0,diis    10   -400.6339360800 -1.19D-05  9.07D-06  2.45D-05    96.7
 sigma=  0.16D-02 eFermi= -0.08382 T*S= -4.19E-15 nel(1)=   64.00 nel(
 d= 0,ls=0.0,diis    11   -400.6339388690 -2.79D-06  2.14D-06  2.55D-06   106.4
 sigma=  0.16D-02 eFermi= -0.08380 T*S= -4.40E-15 nel(1)=   64.00 nel(
 d= 0,ls=0.0,diis    12   -400.6339391819 -3.13D-07  7.77D-07  6.19D-08   115.4


         Total DFT energy =     -400.633939181923
      One electron energy =    -1345.478591598681
           Coulomb energy =      595.477673230662
          Exchange energy =      -53.506640733758
       Correlation energy =       -2.128204741661
 Nuclear repulsion energy =      405.001824661514

 Numeric. integr. density =       63.999989662628

     Total iterative time =    112.8s



                       DFT Final Molecular Orbital Analysis
                       ------------------------------------

 Vector    1  Occ=2.000000D+00  E=-1.871146D+01
              MO Center= -1.1D+00, -2.3D+00,  3.6D-01, r^2= 1.5D-02
   Bfn.  Coefficient  Atom+Function         Bfn.  Coefficient  Atom+Function  
  ----- ------------  ---------------      ----- ------------  ---------------
   246      1.005984   8 O  s               247      0.031990   8 O  s         

 Vector    2  Occ=2.000000D+00  E=-1.401766D+01
              MO Center=  1.0D+00, -2.4D+00, -3.1D-01, r^2= 2.0D-02
   Bfn.  Coefficient  Atom+Function         Bfn.  Coefficient  Atom+Function  
  ----- ------------  ---------------      ----- ------------  ---------------
   281      1.006199   9 N  s               282      0.029539   9 N  s         

 Vector    3  Occ=2.000000D+00  E=-9.982577D+00
              MO Center= -7.5D-02, -1.7D+00,  2.9D-02, r^2= 2.8D-02
   Bfn.  Coefficient  Atom+Function         Bfn.  Coefficient  Atom+Function  
  ----- ------------  ---------------      ----- ------------  ---------------
   211      1.002870   7 C  s         

 Vector    4  Occ=2.000000D+00  E=-9.908200D+00
              MO Center= -1.4D-02, -2.2D-01,  6.7D-03, r^2= 3.8D-02
   Bfn.  Coefficient  Atom+Function         Bfn.  Coefficient  Atom+Function  
  ----- ------------  ---------------      ----- ------------  ---------------
     1      1.000286   1 C  s                36      0.069345   2 C  s         

 Vector    5  Occ=2.000000D+00  E=-9.905387D+00
              MO Center=  1.2D+00,  4.8D-01,  1.7D-01, r^2= 4.3D-02
   Bfn.  Coefficient  Atom+Function         Bfn.  Coefficient  Atom+Function  
  ----- ------------  ---------------      ----- ------------  ---------------
    36      0.998981   2 C  s                 1     -0.069283   1 C  s         
    71      0.053779   3 C  s         

 Vector    6  Occ=2.000000D+00  E=-9.901756D+00
              MO Center=  7.7D-01,  2.1D+00,  1.3D-01, r^2= 4.8D-01
   Bfn.  Coefficient  Atom+Function         Bfn.  Coefficient  Atom+Function  
  ----- ------------  ---------------      ----- ------------  ---------------
    71      0.810375   3 C  s               106      0.587221   4 C  s         
   141      0.046657   5 C  s                36     -0.045025   2 C  s         

 Vector    7  Occ=2.000000D+00  E=-9.901332D+00
              MO Center=  3.9D-01,  2.3D+00,  7.2D-02, r^2= 4.8D-01
   Bfn.  Coefficient  Atom+Function         Bfn.  Coefficient  Atom+Function  
  ----- ------------  ---------------      ----- ------------  ---------------
   106      0.807900   4 C  s                71     -0.588232   3 C  s         
   141      0.077589   5 C  s                36      0.029434   2 C  s         

 Vector    8  Occ=2.000000D+00  E=-9.899250D+00
              MO Center= -1.2D+00,  1.9D+00, -1.7D-01, r^2= 6.8D-02
   Bfn.  Coefficient  Atom+Function         Bfn.  Coefficient  Atom+Function  
  ----- ------------  ---------------      ----- ------------  ---------------
   141      0.992340   5 C  s               176      0.113002   6 C  s         
   106     -0.090064   4 C  s         

 Vector    9  Occ=2.000000D+00  E=-9.897405D+00
              MO Center= -1.2D+00,  5.0D-01, -1.7D-01, r^2= 5.3D-02
   Bfn.  Coefficient  Atom+Function         Bfn.  Coefficient  Atom+Function  
  ----- ------------  ---------------      ----- ------------  ---------------
   176      0.996247   6 C  s               141     -0.112921   5 C  s         

 Vector   10  Occ=2.000000D+00  E=-9.425377D-01
              MO Center= -4.7D-01, -2.1D+00,  1.5D-01, r^2= 9.9D-01
   Bfn.  Coefficient  Atom+Function         Bfn.  Coefficient  Atom+Function  
  ----- ------------  ---------------      ----- ------------  ---------------
   248      0.384404   8 O  s               213      0.238983   7 C  s         
   249      0.187720   8 O  s               283      0.169147   9 N  s         
   246     -0.161871   8 O  s               211     -0.130289   7 C  s         
   250      0.099589   8 O  px              247      0.098259   8 O  s         
   212      0.081491   7 C  s               281     -0.078371   9 N  s         

 Vector   11  Occ=2.000000D+00  E=-8.379520D-01
              MO Center=  5.3D-01, -2.2D+00, -1.9D-01, r^2= 1.5D+00
   Bfn.  Coefficient  Atom+Function         Bfn.  Coefficient  Atom+Function  
  ----- ------------  ---------------      ----- ------------  ---------------
   283      0.397089   9 N  s               248     -0.254235   8 O  s         
   284      0.176582   9 N  s               281     -0.174999   9 N  s         
   215      0.162686   7 C  px              249     -0.132006   8 O  s         
   246      0.103967   8 O  s               406      0.103897  16 H  s         
   282      0.099940   9 N  s               391      0.090349  15 H  s         

 Vector   12  Occ=2.000000D+00  E=-7.917206D-01
              MO Center=  3.2D-02,  1.0D+00,  3.4D-03, r^2= 2.4D+00
   Bfn.  Coefficient  Atom+Function         Bfn.  Coefficient  Atom+Function  
  ----- ------------  ---------------      ----- ------------  ---------------
     3      0.182452   1 C  s                38      0.175178   2 C  s         
    73      0.171035   3 C  s               178      0.168192   6 C  s         
   108      0.166870   4 C  s               143      0.164940   5 C  s         
     1     -0.092949   1 C  s                36     -0.091514   2 C  s         
    71     -0.088813   3 C  s               176     -0.087722   6 C  s         

 Vector   13  Occ=2.000000D+00  E=-6.973981D-01
              MO Center=  2.4D-02,  8.7D-01, -2.0D-03, r^2= 3.6D+00
   Bfn.  Coefficient  Atom+Function         Bfn.  Coefficient  Atom+Function  
  ----- ------------  ---------------      ----- ------------  ---------------
     3      0.256111   1 C  s               108     -0.240645   4 C  s         
   143     -0.145421   5 C  s                 1     -0.124461   1 C  s         
    73     -0.120907   3 C  s               106      0.120011   4 C  s         
    38      0.115546   2 C  s               216      0.093096   7 C  py        
   178      0.081492   6 C  s                 2      0.079477   1 C  s         

 Vector   14  Occ=2.000000D+00  E=-6.876906D-01
              MO Center= -4.4D-03,  1.2D+00,  5.5D-03, r^2= 2.9D+00
   Bfn.  Coefficient  Atom+Function         Bfn.  Coefficient  Atom+Function  
  ----- ------------  ---------------      ----- ------------  ---------------
   178     -0.230291   6 C  s                73      0.226411   3 C  s         
    38      0.213010   2 C  s               143     -0.211384   5 C  s         
   176      0.113865   6 C  s                71     -0.111968   3 C  s         
    36     -0.105105   2 C  s               141      0.104896   5 C  s         
     5      0.086713   1 C  px              110      0.083616   4 C  px        

 Vector   15  Occ=2.000000D+00  E=-5.895912D-01
              MO Center=  2.4D-01, -2.1D-01, -7.7D-02, r^2= 5.6D+00
   Bfn.  Coefficient  Atom+Function         Bfn.  Coefficient  Atom+Function  
  ----- ------------  ---------------      ----- ------------  ---------------
   213      0.211750   7 C  s               108      0.194971   4 C  s         
   178     -0.141738   6 C  s               286      0.130805   9 N  py        
     6     -0.124222   1 C  py               38     -0.121130   2 C  s         
   248     -0.111949   8 O  s                 3      0.101940   1 C  s         
   391     -0.100870  15 H  s               146      0.097349   5 C  py        

 Vector   16  Occ=2.000000D+00  E=-5.578590D-01
              MO Center=  1.3D-02,  1.0D+00,  7.8D-04, r^2= 4.0D+00
   Bfn.  Coefficient  Atom+Function         Bfn.  Coefficient  Atom+Function  
  ----- ------------  ---------------      ----- ------------  ---------------
   143      0.209671   5 C  s                38      0.199352   2 C  s         
    73     -0.168197   3 C  s                 5      0.159292   1 C  px        
   178     -0.156258   6 C  s               110     -0.149056   4 C  px        
   181      0.111363   6 C  py               76     -0.098236   3 C  py        
   141     -0.094232   5 C  s               316      0.093592  10 H  s         

 Vector   17  Occ=2.000000D+00  E=-5.336841D-01
              MO Center=  4.7D-01, -6.1D-01, -1.6D-01, r^2= 5.8D+00
   Bfn.  Coefficient  Atom+Function         Bfn.  Coefficient  Atom+Function  
  ----- ------------  ---------------      ----- ------------  ---------------
   285      0.224265   9 N  px              213     -0.166737   7 C  s         
   288      0.150901   9 N  px                3      0.134916   1 C  s         
   108      0.131596   4 C  s               406      0.130452  16 H  s         
    73     -0.126272   3 C  s               215     -0.119796   7 C  px        
   248      0.101247   8 O  s               287     -0.101119   9 N  pz        

 Vector   18  Occ=2.000000D+00  E=-5.077864D-01
              MO Center=  6.0D-01, -8.4D-01, -1.9D-01, r^2= 5.2D+00
   Bfn.  Coefficient  Atom+Function         Bfn.  Coefficient  Atom+Function  
  ----- ------------  ---------------      ----- ------------  ---------------
   285      0.177460   9 N  px              286      0.169964   9 N  py        
   406      0.164287  16 H  s               407      0.131916  16 H  s         
   216      0.124574   7 C  py                6     -0.123563   1 C  py        
   289      0.122141   9 N  py               40      0.119713   2 C  px        
   288      0.118125   9 N  px              391     -0.110454  15 H  s         

 Vector   19  Occ=2.000000D+00  E=-4.695909D-01
              MO Center=  3.9D-01, -1.6D-01, -1.3D-01, r^2= 7.2D+00
   Bfn.  Coefficient  Atom+Function         Bfn.  Coefficient  Atom+Function  
  ----- ------------  ---------------      ----- ------------  ---------------
   286      0.233848   9 N  py              289      0.165633   9 N  py        
   391     -0.155242  15 H  s               111     -0.150346   4 C  py        
   392     -0.117804  15 H  s                75     -0.104745   3 C  px        
   406      0.104852  16 H  s               346     -0.103174  12 H  s         
   146     -0.096602   5 C  py              114     -0.094750   4 C  py        

 Vector   20  Occ=2.000000D+00  E=-4.335794D-01
              MO Center= -8.8D-02,  5.3D-01,  1.5D-02, r^2= 6.0D+00
   Bfn.  Coefficient  Atom+Function         Bfn.  Coefficient  Atom+Function  
  ----- ------------  ---------------      ----- ------------  ---------------
    41      0.145841   2 C  py              111     -0.138171   4 C  py        
   178     -0.137717   6 C  s               216      0.135360   7 C  py        
   346     -0.128167  12 H  s               143      0.125935   5 C  s         
     6     -0.114064   1 C  py              179     -0.111017   6 C  s         
   213      0.106610   7 C  s               347     -0.105871  12 H  s         

 Vector   21  Occ=2.000000D+00  E=-4.136859D-01
              MO Center=  1.0D-01,  8.7D-01,  1.7D-02, r^2= 4.2D+00
   Bfn.  Coefficient  Atom+Function         Bfn.  Coefficient  Atom+Function  
  ----- ------------  ---------------      ----- ------------  ---------------
    76      0.182359   3 C  py                5      0.178298   1 C  px        
   110      0.168634   4 C  px               40     -0.154643   2 C  px        
   145     -0.154615   5 C  px              181      0.155231   6 C  py        
    41     -0.133718   2 C  py               79      0.109366   3 C  py        
     8      0.106968   1 C  px              113      0.105538   4 C  px        

 Vector   22  Occ=2.000000D+00  E=-3.957038D-01
              MO Center= -2.9D-02,  5.3D-01,  3.7D-02, r^2= 5.5D+00
   Bfn.  Coefficient  Atom+Function         Bfn.  Coefficient  Atom+Function  
  ----- ------------  ---------------      ----- ------------  ---------------
    75      0.150550   3 C  px                6      0.143057   1 C  py        
   111      0.140479   4 C  py              180      0.123205   6 C  px        
    40     -0.116532   2 C  px              146      0.113477   5 C  py        
     3      0.109430   1 C  s               361      0.109692  13 H  s         
   316     -0.106616  10 H  s               145     -0.104814   5 C  px        

 Vector   23  Occ=2.000000D+00  E=-3.853125D-01
              MO Center= -1.0D-02,  1.0D+00,  6.8D-03, r^2= 4.4D+00
   Bfn.  Coefficient  Atom+Function         Bfn.  Coefficient  Atom+Function  
  ----- ------------  ---------------      ----- ------------  ---------------
   180      0.188987   6 C  px               75      0.186255   3 C  px        
   331      0.145118  11 H  s               145      0.137439   5 C  px        
   332      0.137846  11 H  s               376     -0.135459  14 H  s         
   377     -0.121050  14 H  s                78      0.118572   3 C  px        
    40      0.117816   2 C  px              183      0.117237   6 C  px        

 Vector   24  Occ=2.000000D+00  E=-3.738923D-01
              MO Center=  2.7D-02, -9.2D-01,  2.1D-02, r^2= 4.0D+00
   Bfn.  Coefficient  Atom+Function         Bfn.  Coefficient  Atom+Function  
  ----- ------------  ---------------      ----- ------------  ---------------
   217      0.210809   7 C  pz              252      0.183524   8 O  pz        
   220      0.169859   7 C  pz              287      0.158647   9 N  pz        
   255      0.142204   8 O  pz              290      0.131665   9 N  pz        
     7      0.123111   1 C  pz               41      0.106542   2 C  py        
    10      0.102938   1 C  pz              215      0.101448   7 C  px        

 Vector   25  Occ=2.000000D+00  E=-3.605588D-01
              MO Center= -7.5D-01, -1.3D+00,  2.1D-01, r^2= 5.2D+00
   Bfn.  Coefficient  Atom+Function         Bfn.  Coefficient  Atom+Function  
  ----- ------------  ---------------      ----- ------------  ---------------
   250      0.303030   8 O  px              253      0.211159   8 O  px        
   249     -0.209633   8 O  s               248     -0.192593   8 O  s         
   215     -0.170331   7 C  px              251      0.142192   8 O  py        
   216     -0.134515   7 C  py              111      0.132619   4 C  py        
   213      0.107530   7 C  s                 6      0.100182   1 C  py        

 Vector   26  Occ=2.000000D+00  E=-3.355939D-01
              MO Center=  2.7D-02,  6.2D-01,  9.0D-03, r^2= 4.7D+00
   Bfn.  Coefficient  Atom+Function         Bfn.  Coefficient  Atom+Function  
  ----- ------------  ---------------      ----- ------------  ---------------
   112      0.169267   4 C  pz               77      0.166558   3 C  pz        
   147      0.158587   5 C  pz               42      0.146584   2 C  pz        
   115      0.143092   4 C  pz               80      0.140912   3 C  pz        
   182      0.135556   6 C  pz              150      0.134253   5 C  pz        
    45      0.125896   2 C  pz              217     -0.126504   7 C  pz        

 Vector   27  Occ=2.000000D+00  E=-3.199098D-01
              MO Center= -2.0D-01,  1.1D+00,  6.1D-03, r^2= 5.0D+00
   Bfn.  Coefficient  Atom+Function         Bfn.  Coefficient  Atom+Function  
  ----- ------------  ---------------      ----- ------------  ---------------
   181      0.203699   6 C  py              146     -0.197617   5 C  py        
   111      0.184033   4 C  py               76     -0.175800   3 C  py        
    41      0.162929   2 C  py              347      0.154617  12 H  s         
   346      0.153138  12 H  s               216      0.148626   7 C  py        
   184      0.130235   6 C  py              149     -0.126775   5 C  py        

 Vector   28  Occ=2.000000D+00  E=-3.100774D-01
              MO Center= -1.8D-01,  1.0D+00, -1.2D-03, r^2= 4.5D+00
   Bfn.  Coefficient  Atom+Function         Bfn.  Coefficient  Atom+Function  
  ----- ------------  ---------------      ----- ------------  ---------------
     5      0.197756   1 C  px              110     -0.193024   4 C  px        
   180     -0.185040   6 C  px              145      0.176930   5 C  px        
    40     -0.165320   2 C  px               75      0.161251   3 C  px        
   376      0.145091  14 H  s               377      0.138447  14 H  s         
     8      0.132422   1 C  px              332      0.131656  11 H  s         

 Vector   29  Occ=2.000000D+00  E=-2.453534D-01
              MO Center=  1.9D-01, -5.3D-01, -2.5D-02, r^2= 5.6D+00
   Bfn.  Coefficient  Atom+Function         Bfn.  Coefficient  Atom+Function  
  ----- ------------  ---------------      ----- ------------  ---------------
   287      0.241274   9 N  pz              290      0.212487   9 N  pz        
   252     -0.188557   8 O  pz               77      0.182627   3 C  pz        
   182     -0.183524   6 C  pz               80      0.161484   3 C  pz        
   185     -0.161204   6 C  pz              293      0.160747   9 N  pz        
   255     -0.151119   8 O  pz              285      0.123565   9 N  px        

 Vector   30  Occ=2.000000D+00  E=-2.436386D-01
              MO Center=  2.4D-02,  9.8D-01, -1.3D-02, r^2= 3.8D+00
   Bfn.  Coefficient  Atom+Function         Bfn.  Coefficient  Atom+Function  
  ----- ------------  ---------------      ----- ------------  ---------------
    42      0.235904   2 C  pz              147     -0.235251   5 C  pz        
    45      0.210478   2 C  pz              150     -0.208166   5 C  pz        
   112     -0.192691   4 C  pz                7      0.187590   1 C  pz        
    10      0.171075   1 C  pz              115     -0.170656   4 C  pz        
    48      0.112533   2 C  pz              153     -0.102362   5 C  pz        

 Vector   31  Occ=2.000000D+00  E=-2.394131D-01
              MO Center= -2.2D-01, -7.8D-01,  7.6D-02, r^2= 5.4D+00
   Bfn.  Coefficient  Atom+Function         Bfn.  Coefficient  Atom+Function  
  ----- ------------  ---------------      ----- ------------  ---------------
   252      0.266216   8 O  pz              255      0.215587   8 O  pz        
   287     -0.188370   9 N  pz              182     -0.168067   6 C  pz        
    77      0.163447   3 C  pz              290     -0.163769   9 N  pz        
   185     -0.150529   6 C  pz               80      0.145011   3 C  pz        
   250      0.132514   8 O  px              258      0.133070   8 O  pz        

 Vector   32  Occ=2.000000D+00  E=-2.087970D-01
              MO Center= -8.0D-01, -2.0D+00,  2.7D-01, r^2= 2.2D+00
   Bfn.  Coefficient  Atom+Function         Bfn.  Coefficient  Atom+Function  
  ----- ------------  ---------------      ----- ------------  ---------------
   251      0.409034   8 O  py              254      0.330578   8 O  py        
   257      0.226931   8 O  py                4     -0.196670   1 C  s         
   250     -0.168781   8 O  px              284      0.167473   9 N  s         
   253     -0.139412   8 O  px                6      0.131599   1 C  py        
   252      0.120168   8 O  pz                9      0.117937   1 C  py        

 Vector   33  Occ=0.000000D+00  E=-7.571694D-02
              MO Center= -4.9D-02,  2.1D-01,  1.9D-02, r^2= 5.2D+00
   Bfn.  Coefficient  Atom+Function         Bfn.  Coefficient  Atom+Function  
  ----- ------------  ---------------      ----- ------------  ---------------
    13      0.378244   1 C  pz              118      0.306519   4 C  pz        
   112      0.230752   4 C  pz              115      0.228575   4 C  pz        
    46      0.227269   2 C  px               10      0.221500   1 C  pz        
     7      0.216476   1 C  pz              220      0.217362   7 C  pz        
    48     -0.213890   2 C  pz              188     -0.204772   6 C  pz        

 Vector   34  Occ=0.000000D+00  E=-5.406545D-02
              MO Center=  4.2D-02,  1.1D+00, -1.9D-02, r^2= 4.0D+00
   Bfn.  Coefficient  Atom+Function         Bfn.  Coefficient  Atom+Function  
  ----- ------------  ---------------      ----- ------------  ---------------
    83      0.405452   3 C  pz               48     -0.364549   2 C  pz        
   188      0.355465   6 C  pz              153     -0.341947   5 C  pz        
    77      0.250007   3 C  pz               80      0.250031   3 C  pz        
   185      0.250017   6 C  pz              182      0.245422   6 C  pz        
    45     -0.224953   2 C  pz              147     -0.225036   5 C  pz        

 Vector   35  Occ=0.000000D+00  E=-1.537548D-02
              MO Center=  1.8D+00, -1.5D+00, -5.2D-01, r^2= 8.4D+00
   Bfn.  Coefficient  Atom+Function         Bfn.  Coefficient  Atom+Function  
  ----- ------------  ---------------      ----- ------------  ---------------
   408      1.086310  16 H  s               318      1.000538  10 H  s         
   214     -0.946686   7 C  s                47      0.740200   2 C  py        
   393      0.732014  15 H  s                74     -0.722472   3 C  s         
    12     -0.596186   1 C  py               46     -0.548825   2 C  px        
   221     -0.549042   7 C  px              144     -0.524198   5 C  s         

 Vector   36  Occ=0.000000D+00  E= 5.640121D-03
              MO Center=  4.9D-01,  7.1D-01, -1.3D-02, r^2= 1.1D+01
   Bfn.  Coefficient  Atom+Function         Bfn.  Coefficient  Atom+Function  
  ----- ------------  ---------------      ----- ------------  ---------------
   333      1.037083  11 H  s                12     -0.777312   1 C  py        
   348      0.727337  12 H  s               109     -0.654762   4 C  s         
    11     -0.638824   1 C  px              318      0.602009  10 H  s         
    74     -0.552874   3 C  s               363      0.517652  13 H  s         
   393     -0.511164  15 H  s               179     -0.474165   6 C  s         

 Vector   37  Occ=0.000000D+00  E= 1.082603D-02
              MO Center= -1.8D-01,  1.0D+00, -7.6D-02, r^2= 1.2D+01
   Bfn.  Coefficient  Atom+Function         Bfn.  Coefficient  Atom+Function  
  ----- ------------  ---------------      ----- ------------  ---------------
   348      1.049660  12 H  s               363      1.007578  13 H  s         
   109     -0.801334   4 C  s               333      0.720892  11 H  s         
    46      0.627010   2 C  px              318     -0.628801  10 H  s         
    39     -0.535285   2 C  s               117     -0.468317   4 C  py        
   393     -0.453996  15 H  s                81     -0.441774   3 C  px        

 Vector   38  Occ=0.000000D+00  E= 2.536161D-02
              MO Center=  4.6D-01, -1.2D-02, -1.4D-01, r^2= 1.7D+01
   Bfn.  Coefficient  Atom+Function         Bfn.  Coefficient  Atom+Function  
  ----- ------------  ---------------      ----- ------------  ---------------
   333      1.389567  11 H  s               363     -1.391672  13 H  s         
   393     -1.146194  15 H  s               318      1.126645  10 H  s         
    81     -0.848627   3 C  px              144      0.845140   5 C  s         
   151     -0.738809   5 C  px              348     -0.627670  12 H  s         
    82     -0.580657   3 C  py               39     -0.521241   2 C  s         

 Vector   39  Occ=0.000000D+00  E= 3.686322D-02
              MO Center=  1.0D-02,  2.8D-01, -2.8D-01, r^2= 1.8D+01
   Bfn.  Coefficient  Atom+Function         Bfn.  Coefficient  Atom+Function  
  ----- ------------  ---------------      ----- ------------  ---------------
   363      1.541623  13 H  s               333     -1.389804  11 H  s         
    12     -1.330165   1 C  py              348     -1.330050  12 H  s         
   378      1.304763  14 H  s               393     -1.200582  15 H  s         
    47      1.074280   2 C  py              117      1.037005   4 C  py        
   318      1.009264  10 H  s               151      0.927473   5 C  px        

 Vector   40  Occ=0.000000D+00  E= 4.902776D-02
              MO Center=  5.9D-01,  8.9D-01, -1.9D-01, r^2= 1.6D+01
   Bfn.  Coefficient  Atom+Function         Bfn.  Coefficient  Atom+Function  
  ----- ------------  ---------------      ----- ------------  ---------------
   348      2.544946  12 H  s               117     -2.169748   4 C  py        
   333     -1.651219  11 H  s               408      1.406763  16 H  s         
   378     -1.373958  14 H  s                12      1.203924   1 C  py        
    82      1.192182   3 C  py              187     -1.190836   6 C  py        
    81      1.035225   3 C  px              318     -0.860248  10 H  s         

 Vector   41  Occ=0.000000D+00  E= 6.653704D-02
              MO Center= -2.5D-01,  4.1D-01, -2.0D-01, r^2= 1.4D+01
   Bfn.  Coefficient  Atom+Function         Bfn.  Coefficient  Atom+Function  
  ----- ------------  ---------------      ----- ------------  ---------------
   378      2.952556  14 H  s               186      2.752923   6 C  px        
   318     -2.399684  10 H  s               151     -2.029110   5 C  px        
   363     -1.951516  13 H  s                46      1.632669   2 C  px        
    81     -1.478662   3 C  px              333      1.478059  11 H  s         
    12     -1.064833   1 C  py               39      0.978396   2 C  s         

 Vector   42  Occ=0.000000D+00  E= 7.897431D-02
              MO Center=  3.3D-01,  9.2D-01,  1.3D-01, r^2= 1.6D+01
   Bfn.  Coefficient  Atom+Function         Bfn.  Coefficient  Atom+Function  
  ----- ------------  ---------------      ----- ------------  ---------------
   318     -2.998361  10 H  s                46      2.884749   2 C  px        
   333      2.607564  11 H  s                12      2.560190   1 C  py        
   348     -2.501354  12 H  s               363      2.486793  13 H  s         
    81     -2.440577   3 C  px              117      2.437945   4 C  py        
     4      2.297291   1 C  s                39     -2.071445   2 C  s         

 Vector   43  Occ=0.000000D+00  E= 9.728761D-02
              MO Center=  5.5D-02,  5.2D-01, -2.7D-02, r^2= 6.2D+00
   Bfn.  Coefficient  Atom+Function         Bfn.  Coefficient  Atom+Function  
  ----- ------------  ---------------      ----- ------------  ---------------
    13      1.122335   1 C  pz                4      1.061669   1 C  s         
   188     -1.062834   6 C  pz               48     -1.018676   2 C  pz        
    83      0.863708   3 C  pz              153      0.810106   5 C  pz        
   118     -0.790568   4 C  pz              222     -0.749268   7 C  py        
   179     -0.739811   6 C  s               223     -0.624360   7 C  pz        

 Vector   44  Occ=0.000000D+00  E= 1.101762D-01
              MO Center= -1.3D-01,  3.6D-01,  9.3D-02, r^2= 8.1D+00
   Bfn.  Coefficient  Atom+Function         Bfn.  Coefficient  Atom+Function  
  ----- ------------  ---------------      ----- ------------  ---------------
    12      4.435171   1 C  py                4      3.713530   1 C  s         
   214      3.034172   7 C  s               179     -2.904278   6 C  s         
    46      2.662563   2 C  px               39     -2.009342   2 C  s         
   318     -1.730501  10 H  s               186     -1.478491   6 C  px        
   363     -1.292011  13 H  s               144      0.876806   5 C  s         

 Vector   45  Occ=0.000000D+00  E= 1.239739D-01
              MO Center=  2.2D-01, -3.2D-01, -3.7D-02, r^2= 1.2D+01
   Bfn.  Coefficient  Atom+Function         Bfn.  Coefficient  Atom+Function  
  ----- ------------  ---------------      ----- ------------  ---------------
   222      2.879613   7 C  py               74     -1.871895   3 C  s         
    12      1.794491   1 C  py               47      1.729584   2 C  py        
   117     -1.729141   4 C  py              144     -1.732728   5 C  s         
   214      1.472911   7 C  s               348      1.407987  12 H  s         
   333     -1.353821  11 H  s               363     -1.343433  13 H  s         

 Vector   46  Occ=0.000000D+00  E= 1.320620D-01
              MO Center=  1.5D-01,  4.8D-01, -8.7D-02, r^2= 9.8D+00
   Bfn.  Coefficient  Atom+Function         Bfn.  Coefficient  Atom+Function  
  ----- ------------  ---------------      ----- ------------  ---------------
    11      1.809125   1 C  px              214     -1.653230   7 C  s         
   179      1.638460   6 C  s                39     -1.439891   2 C  s         
   186      1.381294   6 C  px               12     -1.317748   1 C  py        
   187     -1.008547   6 C  py              223     -0.960732   7 C  pz        
   116     -0.875751   4 C  px              222     -0.865117   7 C  py        

 Vector   47  Occ=0.000000D+00  E= 1.505704D-01
              MO Center=  3.7D-01,  1.1D+00, -2.5D-01, r^2= 1.0D+01
   Bfn.  Coefficient  Atom+Function         Bfn.  Coefficient  Atom+Function  
  ----- ------------  ---------------      ----- ------------  ---------------
    39      3.926988   2 C  s                11     -3.465353   1 C  px        
   179     -2.238310   6 C  s                46     -2.068583   2 C  px        
   318      1.590665  10 H  s                 4     -1.393940   1 C  s         
   221      1.364735   7 C  px              186     -1.121338   6 C  px        
   214      1.126811   7 C  s                82      1.070947   3 C  py        

 Vector   48  Occ=0.000000D+00  E= 1.573182D-01
              MO Center=  3.5D-01, -7.3D-01, -1.8D-01, r^2= 9.9D+00
   Bfn.  Coefficient  Atom+Function         Bfn.  Coefficient  Atom+Function  
  ----- ------------  ---------------      ----- ------------  ---------------
   179      3.028941   6 C  s                 4     -2.442402   1 C  s         
    11      2.364471   1 C  px              214      2.208330   7 C  s         
    47      1.941403   2 C  py              186      1.244767   6 C  px        
    74     -1.099146   3 C  s               144     -0.898221   5 C  s         
   407     -0.866018  16 H  s               222      0.849920   7 C  py        

 Vector   49  Occ=0.000000D+00  E= 1.656452D-01
              MO Center=  2.0D-01,  2.2D-01, -3.8D-01, r^2= 1.0D+01
   Bfn.  Coefficient  Atom+Function         Bfn.  Coefficient  Atom+Function  
  ----- ------------  ---------------      ----- ------------  ---------------
    11      2.008669   1 C  px               47      1.928834   2 C  py        
    74     -1.894158   3 C  s                 4      1.853005   1 C  s         
   221     -1.288176   7 C  px              179      1.220795   6 C  s         
   249     -0.968557   8 O  s               223      0.945524   7 C  pz        
   333     -0.777398  11 H  s                39     -0.731406   2 C  s         

 Vector   50  Occ=0.000000D+00  E= 1.661031D-01
              MO Center= -2.3D-01,  1.9D+00, -1.2D-02, r^2= 9.5D+00
   Bfn.  Coefficient  Atom+Function         Bfn.  Coefficient  Atom+Function  
  ----- ------------  ---------------      ----- ------------  ---------------
   109      4.263183   4 C  s                74     -2.954362   3 C  s         
    81      2.832102   3 C  px              348      2.131593  12 H  s         
   333     -1.959838  11 H  s               152     -1.927731   5 C  py        
   187     -1.662408   6 C  py              117     -1.577365   4 C  py        
   151     -1.503908   5 C  px               46     -1.378920   2 C  px        

 Vector   51  Occ=0.000000D+00  E= 1.716671D-01
              MO Center=  5.5D-02,  1.8D+00,  1.6D-01, r^2= 9.6D+00
   Bfn.  Coefficient  Atom+Function         Bfn.  Coefficient  Atom+Function  
  ----- ------------  ---------------      ----- ------------  ---------------
    11      3.923847   1 C  px              144      3.531276   5 C  s         
    47      2.949014   2 C  py              187     -2.514324   6 C  py        
    74     -2.314222   3 C  s               109     -2.278168   4 C  s         
   179      2.027570   6 C  s               363      1.924792  13 H  s         
   116      1.754899   4 C  px              151      1.626807   5 C  px        

 Vector   52  Occ=0.000000D+00  E= 1.818942D-01
              MO Center=  1.0D-02, -2.1D-01,  5.5D-03, r^2= 9.8D+00
   Bfn.  Coefficient  Atom+Function         Bfn.  Coefficient  Atom+Function  
  ----- ------------  ---------------      ----- ------------  ---------------
     4      4.526127   1 C  s               214     -2.587706   7 C  s         
    39      2.169830   2 C  s                47      2.056066   2 C  py        
    82      2.059978   3 C  py               12     -1.778470   1 C  py        
   222     -1.641981   7 C  py               74     -1.435352   3 C  s         
   186     -1.273801   6 C  px              144     -1.183991   5 C  s         

 Vector   53  Occ=0.000000D+00  E= 1.890715D-01
              MO Center=  4.7D-02,  6.9D-01,  1.2D-01, r^2= 9.7D+00
   Bfn.  Coefficient  Atom+Function         Bfn.  Coefficient  Atom+Function  
  ----- ------------  ---------------      ----- ------------  ---------------
    39      3.108560   2 C  s                 4     -1.951027   1 C  s         
    46     -1.883194   2 C  px               12     -1.739532   1 C  py        
   318      1.658700  10 H  s                11     -1.631953   1 C  px        
    81      1.346455   3 C  px               74     -1.298556   3 C  s         
    82      1.256834   3 C  py              109      1.202054   4 C  s         

 Vector   54  Occ=0.000000D+00  E= 2.127019D-01
              MO Center=  1.6D-01, -1.5D-01,  4.0D-01, r^2= 1.1D+01
   Bfn.  Coefficient  Atom+Function         Bfn.  Coefficient  Atom+Function  
  ----- ------------  ---------------      ----- ------------  ---------------
    12      4.345515   1 C  py              214      3.044408   7 C  s         
     4     -2.766151   1 C  s               222      2.759664   7 C  py        
   221     -2.311246   7 C  px              187     -2.068388   6 C  py        
   179     -1.995000   6 C  s               152     -1.901000   5 C  py        
   333     -1.608503  11 H  s               144      1.585446   5 C  s         

 Vector   55  Occ=0.000000D+00  E= 2.223023D-01
              MO Center=  1.7D-01, -7.8D-02, -8.0D-02, r^2= 9.0D+00
   Bfn.  Coefficient  Atom+Function         Bfn.  Coefficient  Atom+Function  
  ----- ------------  ---------------      ----- ------------  ---------------
   214      2.349285   7 C  s               109      2.102787   4 C  s         
   117     -2.020976   4 C  py              348      1.760617  12 H  s         
   151     -1.368244   5 C  px              318     -1.062911  10 H  s         
    74     -1.054361   3 C  s               144     -0.974651   5 C  s         
   223      0.946983   7 C  pz               12      0.859273   1 C  py        

 Vector   56  Occ=0.000000D+00  E= 2.252148D-01
              MO Center=  1.4D-01,  1.4D-01, -2.2D-01, r^2= 1.0D+01
   Bfn.  Coefficient  Atom+Function         Bfn.  Coefficient  Atom+Function  
  ----- ------------  ---------------      ----- ------------  ---------------
    11      2.427867   1 C  px              179      2.340745   6 C  s         
   144     -1.710380   5 C  s               117     -1.693664   4 C  py        
   151     -1.670257   5 C  px              318     -1.629518  10 H  s         
   348      1.575718  12 H  s                39     -1.534177   2 C  s         
    46      1.473061   2 C  px              109      1.468597   4 C  s         

 Vector   57  Occ=0.000000D+00  E= 2.400251D-01
              MO Center=  5.1D-01, -4.1D-01, -2.4D-01, r^2= 9.4D+00
   Bfn.  Coefficient  Atom+Function         Bfn.  Coefficient  Atom+Function  
  ----- ------------  ---------------      ----- ------------  ---------------
    11      4.954897   1 C  px              179      3.138173   6 C  s         
   214     -2.923456   7 C  s                47      2.797829   2 C  py        
   284      2.457251   9 N  s               221     -1.665485   7 C  px        
    39     -1.511029   2 C  s                81     -1.495868   3 C  px        
   116     -1.438555   4 C  px               82      1.405051   3 C  py        

 Vector   58  Occ=0.000000D+00  E= 2.490046D-01
              MO Center=  2.1D-01,  1.5D-01, -1.5D-01, r^2= 9.3D+00
   Bfn.  Coefficient  Atom+Function         Bfn.  Coefficient  Atom+Function  
  ----- ------------  ---------------      ----- ------------  ---------------
   214      3.632224   7 C  s                11      3.417276   1 C  px        
    39     -2.949122   2 C  s                12      2.413678   1 C  py        
   179      2.055697   6 C  s               117     -1.856357   4 C  py        
   151     -1.700412   5 C  px               13      1.612198   1 C  pz        
    46      1.521049   2 C  px              109      1.423273   4 C  s         

 Vector   59  Occ=0.000000D+00  E= 2.573254D-01
              MO Center= -1.5D-01,  2.8D-02, -8.8D-02, r^2= 1.1D+01
   Bfn.  Coefficient  Atom+Function         Bfn.  Coefficient  Atom+Function  
  ----- ------------  ---------------      ----- ------------  ---------------
   214      3.302880   7 C  s               187     -2.948910   6 C  py        
   144      2.856722   5 C  s                12      2.597486   1 C  py        
   363      2.115580  13 H  s               179     -2.101020   6 C  s         
   151      1.657885   5 C  px              284     -1.494750   9 N  s         
    39     -1.478781   2 C  s               221      1.364817   7 C  px        

 Vector   60  Occ=0.000000D+00  E= 2.607192D-01
              MO Center= -3.3D-01,  1.4D+00,  6.0D-03, r^2= 9.2D+00
   Bfn.  Coefficient  Atom+Function         Bfn.  Coefficient  Atom+Function  
  ----- ------------  ---------------      ----- ------------  ---------------
    39      4.227729   2 C  s                74     -3.522522   3 C  s         
   144     -3.334821   5 C  s               187      3.190831   6 C  py        
    46     -2.745938   2 C  px              363     -2.699243  13 H  s         
   117     -2.605175   4 C  py              152      2.610701   5 C  py        
    11     -2.557009   1 C  px               12     -2.547320   1 C  py        

 Vector   61  Occ=0.000000D+00  E= 2.733466D-01
              MO Center= -1.8D-01, -2.3D-01, -4.4D-02, r^2= 9.8D+00
   Bfn.  Coefficient  Atom+Function         Bfn.  Coefficient  Atom+Function  
  ----- ------------  ---------------      ----- ------------  ---------------
   179      3.146997   6 C  s               186      2.400591   6 C  px        
   214      2.354297   7 C  s               378      2.318796  14 H  s         
    11      2.024331   1 C  px                4     -2.003093   1 C  s         
   144     -1.867812   5 C  s               188      1.546579   6 C  pz        
   151     -1.497678   5 C  px              408     -1.432701  16 H  s         

 Vector   62  Occ=0.000000D+00  E= 2.751387D-01
              MO Center=  6.7D-01,  8.6D-01,  7.7D-03, r^2= 1.4D+01
   Bfn.  Coefficient  Atom+Function         Bfn.  Coefficient  Atom+Function  
  ----- ------------  ---------------      ----- ------------  ---------------
    74      5.426478   3 C  s               333      5.086809  11 H  s         
    81     -4.830410   3 C  px               12      4.299023   1 C  py        
    47     -3.942819   2 C  py               39     -3.729952   2 C  s         
   179     -3.692811   6 C  s                82     -3.506575   3 C  py        
   117      2.943459   4 C  py              109     -2.790753   4 C  s         

 Vector   63  Occ=0.000000D+00  E= 2.803145D-01
              MO Center=  3.9D-02,  1.2D+00, -2.7D-02, r^2= 1.2D+01
   Bfn.  Coefficient  Atom+Function         Bfn.  Coefficient  Atom+Function  
  ----- ------------  ---------------      ----- ------------  ---------------
   151      5.687202   5 C  px              144      5.489471   5 C  s         
   117      5.135064   4 C  py              109     -4.682983   4 C  s         
    74      4.517930   3 C  s               363      4.459286  13 H  s         
    82     -4.310420   3 C  py               39     -4.216182   2 C  s         
   179     -4.140892   6 C  s                 4      3.821694   1 C  s         

 Vector   64  Occ=0.000000D+00  E= 2.870698D-01
              MO Center=  4.5D-01,  8.1D-01, -2.6D-02, r^2= 1.2D+01
   Bfn.  Coefficient  Atom+Function         Bfn.  Coefficient  Atom+Function  
  ----- ------------  ---------------      ----- ------------  ---------------
   117      5.525987   4 C  py              152     -3.947858   5 C  py        
   348     -3.926052  12 H  s               109     -3.475880   4 C  s         
    47      3.368092   2 C  py               81     -3.183078   3 C  px        
   144      2.661127   5 C  s               116     -2.552246   4 C  px        
    74      2.418593   3 C  s               363      2.175733  13 H  s         

 Vector   65  Occ=0.000000D+00  E= 2.903613D-01
              MO Center=  2.1D-02, -2.7D-01, -2.7D-02, r^2= 1.1D+01
   Bfn.  Coefficient  Atom+Function         Bfn.  Coefficient  Atom+Function  
  ----- ------------  ---------------      ----- ------------  ---------------
    46      3.644363   2 C  px              318     -3.428925  10 H  s         
     4      2.574277   1 C  s               214     -2.410064   7 C  s         
    39     -2.347082   2 C  s                81     -2.113612   3 C  px        
   221     -2.083388   7 C  px              408      1.952518  16 H  s         
   223      1.840475   7 C  pz              117      1.813105   4 C  py        

 Vector   66  Occ=0.000000D+00  E= 2.956035D-01
              MO Center= -1.9D-01,  1.1D+00, -5.5D-02, r^2= 1.2D+01
   Bfn.  Coefficient  Atom+Function         Bfn.  Coefficient  Atom+Function  
  ----- ------------  ---------------      ----- ------------  ---------------
   117      4.497992   4 C  py              187      4.437198   6 C  py        
   348     -4.044648  12 H  s               378      3.562230  14 H  s         
    12     -2.899576   1 C  py              186      2.675395   6 C  px        
   179      2.312183   6 C  s                47      2.028309   2 C  py        
   152      1.985059   5 C  py              116      1.862808   4 C  px        

 Vector   67  Occ=0.000000D+00  E= 3.071936D-01
              MO Center=  8.0D-02,  3.2D-01,  7.7D-02, r^2= 1.1D+01
   Bfn.  Coefficient  Atom+Function         Bfn.  Coefficient  Atom+Function  
  ----- ------------  ---------------      ----- ------------  ---------------
   363      2.878714  13 H  s               152     -2.698498   5 C  py        
   151      2.645413   5 C  px              187     -2.649949   6 C  py        
    47      2.603661   2 C  py               13      2.555891   1 C  pz        
   214     -2.223968   7 C  s                48     -2.078407   2 C  pz        
   378     -1.970134  14 H  s                83      1.789423   3 C  pz        

 Vector   68  Occ=0.000000D+00  E= 3.121549D-01
              MO Center=  6.5D-02,  3.0D-01,  8.7D-02, r^2= 1.0D+01
   Bfn.  Coefficient  Atom+Function         Bfn.  Coefficient  Atom+Function  
  ----- ------------  ---------------      ----- ------------  ---------------
    47      4.933237   2 C  py              116     -4.688167   4 C  px        
    11      4.345901   1 C  px               81     -4.196407   3 C  px        
   152     -4.103703   5 C  py               12     -3.103852   1 C  py        
   117      3.102998   4 C  py               82      3.058373   3 C  py        
   187     -2.657364   6 C  py              348     -2.303989  12 H  s         

 Vector   69  Occ=0.000000D+00  E= 3.233232D-01
              MO Center= -3.0D-02,  5.9D-01, -3.5D-02, r^2= 1.2D+01
   Bfn.  Coefficient  Atom+Function         Bfn.  Coefficient  Atom+Function  
  ----- ------------  ---------------      ----- ------------  ---------------
   186      6.090730   6 C  px               81     -5.719871   3 C  px        
    46      5.369910   2 C  px              151     -5.319345   5 C  px        
   378      4.203329  14 H  s               363     -3.482110  13 H  s         
   333      3.386930  11 H  s               318     -3.063057  10 H  s         
    12     -2.088589   1 C  py               13      2.049328   1 C  pz        

 Vector   70  Occ=0.000000D+00  E= 3.301435D-01
              MO Center=  7.4D-02,  6.7D-02, -9.3D-02, r^2= 8.9D+00
   Bfn.  Coefficient  Atom+Function         Bfn.  Coefficient  Atom+Function  
  ----- ------------  ---------------      ----- ------------  ---------------
    47      3.623105   2 C  py              187     -2.958750   6 C  py        
    82      2.838516   3 C  py              117     -2.247855   4 C  py        
   151     -2.258398   5 C  px               39      2.137394   2 C  s         
   116     -1.928289   4 C  px              221      1.884479   7 C  px        
   348      1.425781  12 H  s                 4     -1.213865   1 C  s         

 Vector   71  Occ=0.000000D+00  E= 3.373728D-01
              MO Center=  5.6D-01, -9.7D-01,  9.0D-02, r^2= 1.0D+01
   Bfn.  Coefficient  Atom+Function         Bfn.  Coefficient  Atom+Function  
  ----- ------------  ---------------      ----- ------------  ---------------
    81      3.217126   3 C  px               46     -2.915215   2 C  px        
   186     -2.884408   6 C  px              318      2.881253  10 H  s         
   333     -2.575240  11 H  s                39      2.253258   2 C  s         
     4     -2.037604   1 C  s                48     -1.805614   2 C  pz        
   378     -1.718723  14 H  s                83      1.613313   3 C  pz        

 Vector   72  Occ=0.000000D+00  E= 3.562045D-01
              MO Center=  3.8D-01, -6.6D-01, -1.9D-01, r^2= 1.1D+01
   Bfn.  Coefficient  Atom+Function         Bfn.  Coefficient  Atom+Function  
  ----- ------------  ---------------      ----- ------------  ---------------
   151      4.544790   5 C  px              117      4.244434   4 C  py        
    82     -3.680754   3 C  py              187      3.383974   6 C  py        
   222      3.293042   7 C  py              116      2.571309   4 C  px        
   348     -2.564773  12 H  s               186     -2.538542   6 C  px        
   214     -2.179488   7 C  s               363      2.078966  13 H  s         

 Vector   73  Occ=0.000000D+00  E= 3.767486D-01
              MO Center=  3.9D-02,  2.2D-01, -2.6D-01, r^2= 1.2D+01
   Bfn.  Coefficient  Atom+Function         Bfn.  Coefficient  Atom+Function  
  ----- ------------  ---------------      ----- ------------  ---------------
    11     13.620662   1 C  px               82     11.910187   3 C  py        
   116    -11.308172   4 C  px               47     11.016122   2 C  py        
   151     -8.717123   5 C  px              187     -7.952232   6 C  py        
   152     -7.788069   5 C  py              186      7.340391   6 C  px        
    46      5.635756   2 C  px              179      3.836617   6 C  s         

 Vector   74  Occ=0.000000D+00  E= 3.825406D-01
              MO Center=  1.6D-02,  3.6D-01,  1.5D-02, r^2= 1.2D+01
   Bfn.  Coefficient  Atom+Function         Bfn.  Coefficient  Atom+Function  
  ----- ------------  ---------------      ----- ------------  ---------------
   152     -8.921585   5 C  py               11      8.417215   1 C  px        
    81     -7.877778   3 C  px              187     -7.228440   6 C  py        
   116     -7.147282   4 C  px               46      5.832647   2 C  px        
    47      5.024260   2 C  py               39     -3.733301   2 C  s         
    82      3.628355   3 C  py              214     -3.623925   7 C  s         

 Vector   75  Occ=0.000000D+00  E= 3.958492D-01
              MO Center= -4.9D-01, -8.3D-01,  9.1D-02, r^2= 1.0D+01
   Bfn.  Coefficient  Atom+Function         Bfn.  Coefficient  Atom+Function  
  ----- ------------  ---------------      ----- ------------  ---------------
   187     10.449893   6 C  py               12     -8.413968   1 C  py        
   214     -8.133036   7 C  s                46     -7.378752   2 C  px        
   152      6.913959   5 C  py              116      6.268241   4 C  px        
    81      5.514683   3 C  px              144     -5.310859   5 C  s         
    82     -5.199881   3 C  py               11     -4.527137   1 C  px        

 Vector   76  Occ=0.000000D+00  E= 4.116823D-01
              MO Center= -2.1D-01, -4.7D-01,  5.2D-02, r^2= 1.0D+01
   Bfn.  Coefficient  Atom+Function         Bfn.  Coefficient  Atom+Function  
  ----- ------------  ---------------      ----- ------------  ---------------
    47      8.793465   2 C  py               82      5.600126   3 C  py        
    12     -5.536701   1 C  py              186      5.431120   6 C  px        
   116     -5.403279   4 C  px               74     -4.948741   3 C  s         
   152     -4.475068   5 C  py              214     -4.285695   7 C  s         
    11      4.062666   1 C  px              151     -4.041248   5 C  px        

 Vector   77  Occ=0.000000D+00  E= 4.247683D-01
              MO Center=  3.8D-01, -5.0D-01, -1.7D-01, r^2= 1.0D+01
   Bfn.  Coefficient  Atom+Function         Bfn.  Coefficient  Atom+Function  
  ----- ------------  ---------------      ----- ------------  ---------------
   116     -8.558061   4 C  px              152     -8.554580   5 C  py        
    11      7.781267   1 C  px              187     -7.254185   6 C  py        
    47      7.135668   2 C  py               82      5.924279   3 C  py        
    81     -4.136152   3 C  px              186      3.778818   6 C  px        
    46      3.753285   2 C  px              151     -3.725594   5 C  px        

 Vector   78  Occ=0.000000D+00  E= 4.466064D-01
              MO Center= -4.4D-02, -4.4D-01,  1.3D-01, r^2= 9.1D+00
   Bfn.  Coefficient  Atom+Function         Bfn.  Coefficient  Atom+Function  
  ----- ------------  ---------------      ----- ------------  ---------------
    82      7.743601   3 C  py              116     -6.777515   4 C  px        
    11      5.801986   1 C  px              187     -5.515425   6 C  py        
   152     -4.966036   5 C  py                4     -4.530512   1 C  s         
   186      4.497919   6 C  px               47      4.378032   2 C  py        
   151     -3.419341   5 C  px              214      1.959487   7 C  s         

 Vector   79  Occ=0.000000D+00  E= 4.614573D-01
              MO Center= -1.8D-01,  3.0D-01,  7.0D-02, r^2= 9.4D+00
   Bfn.  Coefficient  Atom+Function         Bfn.  Coefficient  Atom+Function  
  ----- ------------  ---------------      ----- ------------  ---------------
   152      4.736606   5 C  py               47     -3.755649   2 C  py        
    11     -3.651467   1 C  px               12      3.466055   1 C  py        
   109     -3.468388   4 C  s               117     -3.110657   4 C  py        
    39      2.645501   2 C  s               186     -2.224150   6 C  px        
   116      1.933147   4 C  px              347      1.862044  12 H  s         

 Vector   80  Occ=0.000000D+00  E= 4.823849D-01
              MO Center= -9.3D-02,  1.8D+00, -3.6D-02, r^2= 9.1D+00
   Bfn.  Coefficient  Atom+Function         Bfn.  Coefficient  Atom+Function  
  ----- ------------  ---------------      ----- ------------  ---------------
   116     10.162734   4 C  px               11     -7.766529   1 C  px        
   152      7.760885   5 C  py               74     -6.732161   3 C  s         
   144      6.530381   5 C  s                82     -6.402632   3 C  py        
    47     -4.053203   2 C  py              187      3.813721   6 C  py        
    39      3.348178   2 C  s               362     -2.472727  13 H  s         

 Vector   81  Occ=0.000000D+00  E= 4.936846D-01
              MO Center= -3.9D-01, -7.2D-01,  2.2D-01, r^2= 1.1D+01
   Bfn.  Coefficient  Atom+Function         Bfn.  Coefficient  Atom+Function  
  ----- ------------  ---------------      ----- ------------  ---------------
    82      7.906493   3 C  py              116     -5.902989   4 C  px        
    11      5.697891   1 C  px               47      5.120610   2 C  py        
[...]
   Bfn.  Coefficient  Atom+Function         Bfn.  Coefficient  Atom+Function  
  ----- ------------  ---------------      ----- ------------  ---------------
   253      5.215900   8 O  px              249      3.576718   8 O  s         
   218      3.050066   7 C  px              283     -3.009454   9 N  s         
   254      2.856759   8 O  py              266      2.864222   8 O  dxy       
   213     -2.648447   7 C  s               265      2.131870   8 O  dxx       
   303     -2.082390   9 N  dyy             231     -1.968076   7 C  dxy       

 Vector  401  Occ=0.000000D+00  E= 7.632621D+00
              MO Center=  3.0D-01, -2.3D+00, -1.2D-01, r^2= 2.6D+00
   Bfn.  Coefficient  Atom+Function         Bfn.  Coefficient  Atom+Function  
  ----- ------------  ---------------      ----- ------------  ---------------
   253     -6.216078   8 O  px              213      5.824931   7 C  s         
   249     -3.772201   8 O  s               266     -3.544011   8 O  dxy       
   254     -3.289049   8 O  py              231      3.135793   7 C  dxy       
   283     -3.104740   9 N  s               265     -3.024517   8 O  dxx       
   303     -2.547265   9 N  dyy             218     -2.532400   7 C  px        

 Vector  402  Occ=0.000000D+00  E= 7.756964D+00
              MO Center=  1.3D+00, -2.5D+00, -4.9D-01, r^2= 1.1D+00
   Bfn.  Coefficient  Atom+Function         Bfn.  Coefficient  Atom+Function  
  ----- ------------  ---------------      ----- ------------  ---------------
   310      2.254748   9 N  fxyz            407      2.188652  16 H  s         
   289     -2.041226   9 N  py              392     -1.936239  15 H  s         
   308      1.835414   9 N  fxxz            302      1.781981   9 N  dxz       
   312     -1.698333   9 N  fyyy            398     -1.682316  15 H  py        
   307     -1.627286   9 N  fxxy            412     -1.552406  16 H  px        

 Vector  403  Occ=0.000000D+00  E= 9.873317D+00
              MO Center= -2.6D-02, -1.2D-01,  5.4D-03, r^2= 8.9D-01
   Bfn.  Coefficient  Atom+Function         Bfn.  Coefficient  Atom+Function  
  ----- ------------  ---------------      ----- ------------  ---------------
     3      6.571538   1 C  s                14     -3.126769   1 C  dxx       
    17     -3.089382   1 C  dyy               2      3.001483   1 C  s         
    19     -2.961682   1 C  dzz             178      2.144420   6 C  s         
    38      2.103721   2 C  s                20     -1.975287   1 C  dxx       
    25     -1.747717   1 C  dzz              23     -1.584162   1 C  dyy       

 Vector  404  Occ=0.000000D+00  E= 9.981243D+00
              MO Center=  1.6D-02,  2.1D+00,  1.3D-02, r^2= 1.7D+00
   Bfn.  Coefficient  Atom+Function         Bfn.  Coefficient  Atom+Function  
  ----- ------------  ---------------      ----- ------------  ---------------
   108      4.449229   4 C  s                73      3.622699   3 C  s         
   143      3.505105   5 C  s               122     -2.403937   4 C  dyy       
   119     -2.243544   4 C  dxx             107      2.188170   4 C  s         
   124     -2.129665   4 C  dzz              84     -1.911232   3 C  dxx       
    87     -1.831884   3 C  dyy             154     -1.838614   5 C  dxx       

 Vector  405  Occ=0.000000D+00  E= 1.000169D+01
              MO Center= -3.1D-02,  1.3D+00,  1.6D-03, r^2= 2.5D+00
   Bfn.  Coefficient  Atom+Function         Bfn.  Coefficient  Atom+Function  
  ----- ------------  ---------------      ----- ------------  ---------------
   143      3.589156   5 C  s                73     -3.423972   3 C  s         
    38     -3.173856   2 C  s               178      3.107670   6 C  s         
   154     -1.945303   5 C  dxx             157     -1.914533   5 C  dyy       
    84      1.866699   3 C  dxx              87      1.833974   3 C  dyy       
   142      1.823028   5 C  s               159     -1.780675   5 C  dzz       

 Vector  406  Occ=0.000000D+00  E= 1.010959D+01
              MO Center=  3.2D-02,  1.3D+00,  1.5D-02, r^2= 2.4D+00
   Bfn.  Coefficient  Atom+Function         Bfn.  Coefficient  Atom+Function  
  ----- ------------  ---------------      ----- ------------  ---------------
   108      3.817738   4 C  s                38     -3.134246   2 C  s         
   178     -2.677941   6 C  s               122     -2.202061   4 C  dyy       
     3      2.163220   1 C  s               119     -2.078163   4 C  dxx       
   107      2.023098   4 C  s               124     -1.978400   4 C  dzz       
   128     -1.903482   4 C  dyy              49      1.786387   2 C  dxx       

 Vector  407  Occ=0.000000D+00  E= 1.016735D+01
              MO Center= -3.7D-02,  1.1D+00,  9.7D-04, r^2= 2.4D+00
   Bfn.  Coefficient  Atom+Function         Bfn.  Coefficient  Atom+Function  
  ----- ------------  ---------------      ----- ------------  ---------------
   178      3.346504   6 C  s                38     -3.026596   2 C  s         
    73      3.015760   3 C  s               143     -2.789445   5 C  s         
   189     -1.941574   6 C  dxx             192     -1.918423   6 C  dyy       
   177      1.816602   6 C  s               194     -1.779548   6 C  dzz       
    49      1.765032   2 C  dxx              52      1.747646   2 C  dyy       

 Vector  408  Occ=0.000000D+00  E= 1.031826D+01
              MO Center= -9.4D-02, -1.7D+00,  3.2D-02, r^2= 7.4D-01
   Bfn.  Coefficient  Atom+Function         Bfn.  Coefficient  Atom+Function  
  ----- ------------  ---------------      ----- ------------  ---------------
   213      4.140388   7 C  s               230     -4.023432   7 C  dxx       
   224     -3.797684   7 C  dxx             227     -3.452887   7 C  dyy       
   212      3.267298   7 C  s               229     -3.226880   7 C  dzz       
   253      2.868514   8 O  px              233     -2.234639   7 C  dyy       
   266      2.000841   8 O  dxy             237      1.958549   7 C  fxxy      

 Vector  409  Occ=0.000000D+00  E= 1.049789D+01
              MO Center= -4.0D-02,  1.4D+00,  2.7D-03, r^2= 2.4D+00
   Bfn.  Coefficient  Atom+Function         Bfn.  Coefficient  Atom+Function  
  ----- ------------  ---------------      ----- ------------  ---------------
   108      2.423866   4 C  s               143     -2.315749   5 C  s         
    73     -2.297322   3 C  s               178      2.230782   6 C  s         
    38      2.109867   2 C  s               122     -1.695065   4 C  dyy       
    84      1.602806   3 C  dxx             154      1.602479   5 C  dxx       
   125     -1.586519   4 C  dxx             189     -1.535167   6 C  dxx       

 Vector  410  Occ=0.000000D+00  E= 1.209439D+01
              MO Center=  1.0D+00, -2.4D+00, -3.2D-01, r^2= 3.5D-01
   Bfn.  Coefficient  Atom+Function         Bfn.  Coefficient  Atom+Function  
  ----- ------------  ---------------      ----- ------------  ---------------
   283      5.316564   9 N  s               297     -3.167038   9 N  dyy       
   294     -3.083921   9 N  dxx             299     -2.983045   9 N  dzz       
   282      2.698203   9 N  s               303     -1.827691   9 N  dyy       
   300     -1.366762   9 N  dxx             305     -1.285668   9 N  dzz       
   392      0.713360  15 H  s               407      0.620571  16 H  s         

 Vector  411  Occ=0.000000D+00  E= 1.361998D+01
              MO Center= -1.1D+00, -2.3D+00,  3.6D-01, r^2= 2.7D-01
   Bfn.  Coefficient  Atom+Function         Bfn.  Coefficient  Atom+Function  
  ----- ------------  ---------------      ----- ------------  ---------------
   248      4.765488   8 O  s               259     -2.694201   8 O  dxx       
   247      2.627722   8 O  s               262     -2.630128   8 O  dyy       
   264     -2.612797   8 O  dzz             253      1.187197   8 O  px        
   213     -0.975935   7 C  s               214      0.803454   7 C  s         
   254      0.627157   8 O  py              266      0.582426   8 O  dxy       

 Vector  412  Occ=0.000000D+00  E= 3.899552D+01
              MO Center= -1.1D+00, -2.3D+00,  3.4D-01, r^2= 8.4D-01
   Bfn.  Coefficient  Atom+Function         Bfn.  Coefficient  Atom+Function  
  ----- ------------  ---------------      ----- ------------  ---------------
   248      7.728219   8 O  s               247     -6.181701   8 O  s         
   249      4.499679   8 O  s               265     -4.063446   8 O  dxx       
   214     -3.753348   7 C  s               268     -3.576939   8 O  dyy       
   246     -3.526487   8 O  s               270     -3.379004   8 O  dzz       
   213      2.327119   7 C  s               253     -2.237280   8 O  px        

 Vector  413  Occ=0.000000D+00  E= 4.421143D+01
              MO Center=  9.7D-01, -2.3D+00, -2.8D-01, r^2= 6.6D-01
   Bfn.  Coefficient  Atom+Function         Bfn.  Coefficient  Atom+Function  
  ----- ------------  ---------------      ----- ------------  ---------------
   282      8.710021   9 N  s               283     -8.552850   9 N  s         
   284     -5.209223   9 N  s               281      4.541269   9 N  s         
   300      3.308408   9 N  dxx             213     -3.141542   7 C  s         
   214      3.104223   7 C  s               305      3.045463   9 N  dzz       
   303      2.774199   9 N  dyy             212      1.729056   7 C  s         

 Vector  414  Occ=0.000000D+00  E= 4.602400D+01
              MO Center= -7.3D-03,  9.5D-01,  6.4D-03, r^2= 2.1D+00
   Bfn.  Coefficient  Atom+Function         Bfn.  Coefficient  Atom+Function  
  ----- ------------  ---------------      ----- ------------  ---------------
     2      7.110231   1 C  s                37      5.894525   2 C  s         
   177      5.796258   6 C  s                 3     -5.616908   1 C  s         
    72      5.251769   3 C  s               142      5.250461   5 C  s         
   107      5.159120   4 C  s                38     -4.847050   2 C  s         
   178     -4.776597   6 C  s                73     -4.262880   3 C  s         

 Vector  415  Occ=0.000000D+00  E= 4.629737D+01
              MO Center= -1.0D-02,  1.2D+00,  7.8D-03, r^2= 2.2D+00
   Bfn.  Coefficient  Atom+Function         Bfn.  Coefficient  Atom+Function  
  ----- ------------  ---------------      ----- ------------  ---------------
     2      8.574454   1 C  s               107     -8.120762   4 C  s         
     3     -6.817384   1 C  s               108      6.651270   4 C  s         
   142     -4.941230   5 C  s                72     -4.839760   3 C  s         
   143      4.045614   5 C  s                73      3.958649   3 C  s         
     1      3.508097   1 C  s               106     -3.318625   4 C  s         

 Vector  416  Occ=0.000000D+00  E= 4.638117D+01
              MO Center= -1.7D-02,  1.3D+00,  3.8D-03, r^2= 2.1D+00
   Bfn.  Coefficient  Atom+Function         Bfn.  Coefficient  Atom+Function  
  ----- ------------  ---------------      ----- ------------  ---------------
    72      7.549552   3 C  s               142     -7.521332   5 C  s         
   177     -6.744448   6 C  s                37      6.680309   2 C  s         
    73     -6.207258   3 C  s               143      6.179357   5 C  s         
   178      5.502215   6 C  s                38     -5.444324   2 C  s         
    71      3.084384   3 C  s               141     -3.073110   5 C  s         

 Vector  417  Occ=0.000000D+00  E= 4.681289D+01
              MO Center= -1.3D-03,  9.8D-01,  1.2D-02, r^2= 2.5D+00
   Bfn.  Coefficient  Atom+Function         Bfn.  Coefficient  Atom+Function  
  ----- ------------  ---------------      ----- ------------  ---------------
   107      8.249627   4 C  s                 2      7.230331   1 C  s         
   108     -6.740158   4 C  s                 3     -5.765121   1 C  s         
    37     -5.413696   2 C  s               177     -4.915617   6 C  s         
    38      4.374123   2 C  s               178      3.966874   6 C  s         
   212      3.665722   7 C  s               106      3.362875   4 C  s         

 Vector  418  Occ=0.000000D+00  E= 4.693568D+01
              MO Center= -2.4D-02,  1.1D+00,  2.6D-03, r^2= 2.1D+00
   Bfn.  Coefficient  Atom+Function         Bfn.  Coefficient  Atom+Function  
  ----- ------------  ---------------      ----- ------------  ---------------
   177     -7.727937   6 C  s                37      7.478893   2 C  s         
    72     -6.861272   3 C  s               142      6.699291   5 C  s         
   178      6.296835   6 C  s                38     -6.087111   2 C  s         
    73      5.561183   3 C  s               143     -5.436831   5 C  s         
   176     -3.148020   6 C  s                36      3.046588   2 C  s         

 Vector  419  Occ=0.000000D+00  E= 4.710904D+01
              MO Center= -5.9D-02, -1.5D+00,  2.3D-02, r^2= 1.0D+00
   Bfn.  Coefficient  Atom+Function         Bfn.  Coefficient  Atom+Function  
  ----- ------------  ---------------      ----- ------------  ---------------
   212     13.865240   7 C  s               213    -11.623526   7 C  s         
   211      5.630953   7 C  s               224     -3.934834   7 C  dxx       
   227     -3.835410   7 C  dyy             229     -3.724883   7 C  dzz       
   233      2.490793   7 C  dyy             235      2.489451   7 C  dzz       
   107     -2.313030   4 C  s               108      1.886412   4 C  s         

 Vector  420  Occ=0.000000D+00  E= 4.763932D+01
              MO Center= -2.6D-02,  1.3D+00,  4.3D-03, r^2= 2.1D+00
   Bfn.  Coefficient  Atom+Function         Bfn.  Coefficient  Atom+Function  
  ----- ------------  ---------------      ----- ------------  ---------------
   107      6.349183   4 C  s                72     -6.295073   3 C  s         
   142     -6.296848   5 C  s               177      5.970116   6 C  s         
    37      5.786243   2 C  s               108     -5.072620   4 C  s         
    73      5.022662   3 C  s               143      5.022076   5 C  s         
     2     -4.861109   1 C  s               178     -4.749172   6 C  s         


 center of mass
 --------------
 x =  -0.04199714 y =  -0.04681664 z =   0.01723421

 moments of inertia (a.u.)
 ------------------
        1484.548495941608           0.000000000000          -0.000000000000
           0.000000000000         472.084254079844           0.000000000000
          -0.000000000000           0.000000000000        1912.633700067753

     Multipole analysis of the density
     ---------------------------------

     L   x y z        total         alpha         beta         nuclear
     -   - - -        -----         -----         ----         -------
     0   0 0 0     -0.000000    -32.000000    -32.000000     64.000000

     1   1 0 0      1.253010      0.626505      0.626505     -0.000000
     1   0 1 0      0.535608      0.267804      0.267804      0.000000
     1   0 0 1     -0.594515     -0.297257     -0.297257      0.000000

     2   2 0 0    -36.139003   -150.383966   -150.383966    264.628929
     2   1 1 0     -6.733666      2.684814      2.684814    -12.103294
     2   1 0 1      0.286518     -0.645957     -0.645957      1.578433
     2   0 2 0    -35.967129   -419.289831   -419.289831    802.612533
     2   0 1 1      2.940309     -1.014578     -1.014578      4.969464
     2   0 0 2    -41.353172    -27.223918    -27.223918     13.094665


 Task  times  cpu:      115.0s     wall:      116.2s


                                NWChem Input Module
                                -------------------


 Summary of allocated global arrays
-----------------------------------
  No active global arrays



                         GA Statistics for process    0
                         ------------------------------

       create   destroy   get      put      acc     scatter   gather  read&inc
calls:  230      230     1.18e+04 2050     8097        0        0     1221     
number of processes/call 1.65e+00 1.94e+00 1.24e+00 0.00e+00 0.00e+00
bytes total:             2.35e+08 4.34e+07 1.10e+08 0.00e+00 0.00e+00 9.77e+03
bytes remote:            1.66e+08 3.64e+07 6.05e+07 0.00e+00 0.00e+00 0.00e+00
Max memory consumed for GA by this process: 4116000 bytes

MA_summarize_allocated_blocks: starting scan ...
MA_summarize_allocated_blocks: scan completed: 0 heap blocks, 0 stack blocks
MA usage statistics:

	allocation statistics:
					      heap	     stack
					      ----	     -----
	current number of blocks	         0	         0
	maximum number of blocks	        20	        57
	current total bytes		         0	         0
	maximum total bytes		    567744	  38113368
	maximum total K-bytes		       568	     38114
	maximum total M-bytes		         1	        39

	calls per routine:
		        38  MA_alloc_get
		        38  MA_allocate_heap
		      1122  MA_chop_stack
		        38  MA_free_heap
		         0  MA_free_heap_piece
		     35202  MA_get_index
		         5  MA_get_mbase
		         0  MA_get_next_memhandle
		         0  MA_get_numalign
		        49  MA_get_pointer
		         1  MA_init
		         0  MA_initialized
		         0  MA_init_memhandle_iterator
		       155  MA_inquire_avail
		         2  MA_inquire_heap
		         0  MA_inquire_heap_check_stack
		         0  MA_inquire_heap_no_partition
		         2  MA_inquire_stack
		         0  MA_inquire_stack_check_heap
		         0  MA_inquire_stack_no_partition
		     31848  MA_pop_stack
		         1  MA_print_stats
		     35164  MA_push_get
		     35213  MA_push_stack
		         3  MA_set_auto_verify
		         1  MA_set_error_print
		         3  MA_set_hard_fail
		         1  MA_set_numalign
		      6975  MA_sizeof
		        13  MA_sizeof_overhead
		         1  MA_summarize_allocated_blocks
		         0  MA_trace
		    110654  MA_verify_allocator_stuff


                                     CITATION
                                     --------
                Please cite the following reference when publishing
                           results obtained with NWChem:

                 M. Valiev, E.J. Bylaska, N. Govind, K. Kowalski,
              T.P. Straatsma, H.J.J. van Dam, D. Wang, J. Nieplocha,
                        E. Apra, T.L. Windus, W.A. de Jong
                 "NWChem: a comprehensive and scalable open-source
                  solution for large scale molecular simulations"
                      Comput. Phys. Commun. 181, 1477 (2010)
                           doi:10.1016/j.cpc.2010.04.018

                                      AUTHORS
                                      -------
          E. Apra, E. J. Bylaska, W. A. de Jong, N. Govind, K. Kowalski,
       T. P. Straatsma, M. Valiev, H. J. J. van Dam, D. Wang, T. L. Windus,
        J. Hammond, J. Autschbach, K. Bhaskaran-Nair, J. Brabec, K. Lopata,
    S. A. Fischer, S. Krishnamoorthy, M. Jacquelin, W. Ma, M. Klemm, O. Villa,
      Y. Chen, V. Anisimov, F. Aquino, S. Hirata, M. T. Hackler, V. Konjkov,
            D. Mejia-Rodriguez, T. Risthaus, M. Malagoli, A. Marenich,
   A. Otero-de-la-Roza, J. Mullin, P. Nichols, R. Peverati, J. Pittner, Y. Zhao,
        P.-D. Fan, A. Fonari, M. J. Williamson, R. J. Harrison, J. R. Rehr,
      M. Dupuis, D. Silverstein, D. M. A. Smith, J. Nieplocha, V. Tipparaju,
    M. Krishnan, B. E. Van Kuiken, A. Vazquez-Mayagoitia, L. Jensen, M. Swart,
      Q. Wu, T. Van Voorhis, A. A. Auer, M. Nooijen, L. D. Crosby, E. Brown,
      G. Cisneros, G. I. Fann, H. Fruchtl, J. Garza, K. Hirao, R. A. Kendall,
      J. A. Nichols, K. Tsemekhman, K. Wolinski, J. Anchell, D. E. Bernholdt,
      P. Borowski, T. Clark, D. Clerc, H. Dachsel, M. J. O. Deegan, K. Dyall,
    D. Elwood, E. Glendening, M. Gutowski, A. C. Hess, J. Jaffe, B. G. Johnson,
     J. Ju, R. Kobayashi, R. Kutteh, Z. Lin, R. Littlefield, X. Long, B. Meng,
      T. Nakajima, S. Niu, L. Pollack, M. Rosing, K. Glaesemann, G. Sandrone,
      M. Stave, H. Taylor, G. Thomas, J. H. van Lenthe, A. T. Wong, Z. Zhang.

 Total times  cpu:      115.1s     wall:      116.7s
