 argument  1 = gs_opt_pc4.inp
                                         
                                         


              Northwest Computational Chemistry Package (NWChem) 6.8
              ------------------------------------------------------


                    Environmental Molecular Sciences Laboratory
                       Pacific Northwest National Laboratory
                                Richland, WA 99352

                              Copyright (c) 1994-2017
                       Pacific Northwest National Laboratory
                            Battelle Memorial Institute

             NWChem is an open-source computational chemistry package
                        distributed under the terms of the
                      Educational Community License (ECL) 2.0
             A copy of the license is included with this distribution
                              in the LICENSE.TXT file

                                  ACKNOWLEDGMENT
                                  --------------

            This software and its documentation were developed at the
            EMSL at Pacific Northwest National Laboratory, a multiprogram
            national laboratory, operated for the U.S. Department of Energy
            by Battelle under Contract Number DE-AC05-76RL01830. Support
            for this work was provided by the Department of Energy Office
            of Biological and Environmental Research, Office of Basic
            Energy Sciences, and the Office of Advanced Scientific Computing.


           Job information
           ---------------

    hostname        = gl3319.arc-ts.umich.edu
    program         = nwchem
    date            = Sat Oct 30 10:55:43 2021

    compiled        = Thu_Sep_05_08:38:08_2019
    source          = /var/software/raeker/nwchem-6.8.1
    nwchem branch   = 6.8.1
    nwchem revision = v6.8-133-ge032219
    ga revision     = 5.6.5
    use scalapack   = F
    input           = gs_opt_pc4.inp
    prefix          = benzamide_pc4_DIIS.
    data base       = ./benzamide_pc4_DIIS.db
    status          = startup
    nproc           =       72
    time left       =     -1s



           Memory information
           ------------------

    heap     =  163839998 doubles =   1250.0 Mbytes
    stack    =  163839995 doubles =   1250.0 Mbytes
    global   =  327680000 doubles =   2500.0 Mbytes (distinct from heap & stack)
    total    =  655359993 doubles =   5000.0 Mbytes
    verify   = yes
    hardfail = no 


           Directory information
           ---------------------

  0 permanent = .
  0 scratch   = .




                                NWChem Input Module
                                -------------------


                 benzamide DIIS in pc-4 basis set with grid medium
                 -------------------------------------------------
 C1  symmetry detected

          ------
          auto-z
          ------


                             Geometry "geometry" -> ""
                             -------------------------

 Output coordinates in a.u. (scale by  1.000000000 to convert to a.u.)

  No.       Tag          Charge          X              Y              Z
 ---- ---------------- ---------- -------------- -------------- --------------
    1 C                    6.0000    -0.03614211    -0.42053916     0.01126238
    2 C                    6.0000     2.22682459     0.90517052     0.33137610
    3 C                    6.0000     2.22992887     3.53827291     0.35148544
    4 C                    6.0000    -0.02480912     4.85824384     0.02734558
    5 C                    6.0000    -2.28089903     3.54226215    -0.33191181
    6 C                    6.0000    -2.28936248     0.91463370    -0.32032235
    7 C                    6.0000    -0.14244891    -3.24634049     0.05524001
    8 O                    8.0000    -2.11732895    -4.34932595     0.68655829
    9 N                    7.0000     1.95702837    -4.49657036    -0.59018118
   10 H                    1.0000     3.99204501    -0.11393705     0.60632692
   11 H                    1.0000     3.99538978     4.54427784     0.62146220
   12 H                    1.0000    -0.03007003     6.90519702     0.03786346
   13 H                    1.0000    -4.04552126     4.55957129    -0.62368055
   14 H                    1.0000    -4.03594231    -0.13380540    -0.55478304
   15 H                    1.0000     1.87234178    -6.42341934    -0.69532107
   16 H                    1.0000     3.39263918    -3.61750506    -1.49991825

      Atomic Mass 
      ----------- 

      C                 12.000000
      O                 15.994910
      N                 14.003070
      H                  1.007825


 Effective nuclear repulsion energy (a.u.)     405.0018246615

            Nuclear Dipole moment (a.u.) 
            ----------------------------
        X                 Y               Z
 ---------------- ---------------- ----------------
    -0.0000000000     0.0000000000     0.0000000000



                                Z-matrix (autoz)
                                -------- 

 Units are Angstrom for bonds and degrees for angles

      Type          Name      I     J     K     L     M      Value
      ----------- --------  ----- ----- ----- ----- ----- ----------
    1 Stretch                  1     2                       1.39817
    2 Stretch                  1     6                       1.39703
    3 Stretch                  1     7                       1.49659
    4 Stretch                  2     3                       1.39342
    5 Stretch                  2    10                       1.08838
    6 Stretch                  3     4                       1.39318
    7 Stretch                  3    11                       1.08472
    8 Stretch                  4     5                       1.39514
    9 Stretch                  4    12                       1.08322
   10 Stretch                  5     6                       1.39050
   11 Stretch                  5    13                       1.08886
   12 Stretch                  6    14                       1.08510
   13 Stretch                  7     8                       1.24275
   14 Stretch                  7     9                       1.33741
   15 Stretch                  9    15                       1.02214
   16 Stretch                  9    16                       1.01256
   17 Bend                     1     2     3               120.24328
   18 Bend                     1     2    10               120.17661
   19 Bend                     1     6     5               120.23471
   20 Bend                     1     6    14               118.86492
   21 Bend                     1     7     8               120.33553
   22 Bend                     1     7     9               117.32751
   23 Bend                     2     1     6               119.50233
   24 Bend                     2     1     7               122.11685
   25 Bend                     2     3     4               119.96071
   26 Bend                     2     3    11               119.52362
   27 Bend                     3     2    10               119.56752
   28 Bend                     3     4     5               119.95974
   29 Bend                     3     4    12               120.19411
   30 Bend                     4     3    11               120.51566
   31 Bend                     4     5     6               120.08597
   32 Bend                     4     5    13               120.42491
   33 Bend                     5     4    12               119.84423
   34 Bend                     5     6    14               120.89919
   35 Bend                     6     1     7               118.37228
   36 Bend                     6     5    13               119.48912
   37 Bend                     7     9    15               118.09611
   38 Bend                     7     9    16               121.15836
   39 Bend                     8     7     9               122.33560
   40 Bend                    15     9    16               117.72972
   41 Torsion                  1     2     3     4          -0.62048
   42 Torsion                  1     2     3    11         179.34918
   43 Torsion                  1     6     5     4          -0.99896
   44 Torsion                  1     6     5    13         178.97968
   45 Torsion                  1     7     9    15        -175.53391
   46 Torsion                  1     7     9    16         -15.62223
   47 Torsion                  2     1     6     5           0.00235
   48 Torsion                  2     1     6    14        -179.60577
   49 Torsion                  2     1     7     8         153.60719
   50 Torsion                  2     1     7     9         -25.97997
   51 Torsion                  2     3     4     5          -0.37831
   52 Torsion                  2     3     4    12        -179.87256
   53 Torsion                  3     2     1     6           0.80783
   54 Torsion                  3     2     1     7        -178.11158
   55 Torsion                  3     4     5     6           1.18781
   56 Torsion                  3     4     5    13        -178.79062
   57 Torsion                  4     3     2    10        -179.33222
   58 Torsion                  4     5     6    14         178.60109
   59 Torsion                  5     4     3    11         179.65234
   60 Torsion                  5     6     1     7         178.96219
   61 Torsion                  6     1     2    10         179.51168
   62 Torsion                  6     1     7     8         -25.32394
   63 Torsion                  6     1     7     9         155.08890
   64 Torsion                  6     5     4    12        -179.31615
   65 Torsion                  7     1     2    10           0.59227
   66 Torsion                  7     1     6    14          -0.64594
   67 Torsion                  8     7     9    15           4.88780
   68 Torsion                  8     7     9    16         164.79948
   69 Torsion                 10     2     3    11           0.63743
   70 Torsion                 11     3     4    12           0.15809
   71 Torsion                 12     4     5    13           0.70542
   72 Torsion                 13     5     6    14          -1.42027


            XYZ format geometry
            -------------------
    16
 geometry
 C                    -0.01912558    -0.22253976     0.00595980
 C                     1.17838491     0.47899564     0.17535669
 C                     1.18002763     1.87237352     0.18599810
 C                    -0.01312842     2.57087211     0.01447066
 C                    -1.20699987     1.87448454    -0.17564018
 C                    -1.21147854     0.48400335    -0.16950730
 C                    -0.07538072    -1.71788953     0.02923176
 O                    -1.12044231    -2.30156434     0.36331103
 N                     1.03561489    -2.37948273    -0.31231045
 H                     2.11249939    -0.06029289     0.32085441
 H                     2.11426937     2.40472845     0.32886366
 H                    -0.01591238     3.65407316     0.02003648
 H                    -2.14079781     2.41282139    -0.33003756
 H                    -2.13572885    -0.07080677    -0.29357856
 H                     0.99080067    -3.39912738    -0.36794809
 H                     1.79530747    -1.91430137    -0.79372261

 ==============================================================================
                                internuclear distances
 ------------------------------------------------------------------------------
       center one      |      center two      | atomic units |       a.u.
 ------------------------------------------------------------------------------
    2 C                |   1 C                |     2.64216  |     2.64216
    3 C                |   2 C                |     2.63318  |     2.63318
    4 C                |   3 C                |     2.63272  |     2.63272
    5 C                |   4 C                |     2.63644  |     2.63644
    6 C                |   1 C                |     2.64001  |     2.64001
    6 C                |   5 C                |     2.62767  |     2.62767
    7 C                |   1 C                |     2.82814  |     2.82814
    8 O                |   7 C                |     2.34847  |     2.34847
    9 N                |   7 C                |     2.52734  |     2.52734
   10 H                |   2 C                |     2.05674  |     2.05674
   11 H                |   3 C                |     2.04983  |     2.04983
   12 H                |   4 C                |     2.04699  |     2.04699
   13 H                |   5 C                |     2.05765  |     2.05765
   14 H                |   6 C                |     2.05055  |     2.05055
   15 H                |   9 N                |     1.93157  |     1.93157
   16 H                |   9 N                |     1.91347  |     1.91347
 ------------------------------------------------------------------------------
                         number of included internuclear distances:         16
 ==============================================================================



 ==============================================================================
                                 internuclear angles
 ------------------------------------------------------------------------------
        center 1       |       center 2       |       center 3       |  degrees
 ------------------------------------------------------------------------------
    2 C                |   1 C                |   6 C                |   119.50
    2 C                |   1 C                |   7 C                |   122.12
    6 C                |   1 C                |   7 C                |   118.37
    1 C                |   2 C                |   3 C                |   120.24
    1 C                |   2 C                |  10 H                |   120.18
    3 C                |   2 C                |  10 H                |   119.57
    2 C                |   3 C                |   4 C                |   119.96
    2 C                |   3 C                |  11 H                |   119.52
    4 C                |   3 C                |  11 H                |   120.52
    3 C                |   4 C                |   5 C                |   119.96
    3 C                |   4 C                |  12 H                |   120.19
    5 C                |   4 C                |  12 H                |   119.84
    4 C                |   5 C                |   6 C                |   120.09
    4 C                |   5 C                |  13 H                |   120.42
    6 C                |   5 C                |  13 H                |   119.49
    1 C                |   6 C                |   5 C                |   120.23
    1 C                |   6 C                |  14 H                |   118.86
    5 C                |   6 C                |  14 H                |   120.90
    1 C                |   7 C                |   8 O                |   120.34
    1 C                |   7 C                |   9 N                |   117.33
    8 O                |   7 C                |   9 N                |   122.34
    7 C                |   9 N                |  15 H                |   118.10
    7 C                |   9 N                |  16 H                |   121.16
   15 H                |   9 N                |  16 H                |   117.73
 ------------------------------------------------------------------------------
                            number of included internuclear angles:         24
 ==============================================================================



  library name resolved from: environment
  library file name is: </sw/arcts/centos7/nwchem/6.8.1/gcc/8.2.0-mpi/data/libraries/>
  

 **** WARNING Zero Coefficient **** on atom "               C"
 angular momentum value: 0  standard basis set name: "pc-4"
 input line that generated warning:
   277:       0.527780E+06           0.296620E-05           0.000000E+00
  

 **** WARNING Zero Coefficient **** on atom "               C"
 angular momentum value: 0  standard basis set name: "pc-4"
 input line that generated warning:
   278:       0.791050E+05           0.231550E-04           0.000000E+00
  

 **** WARNING Zero Coefficient **** on atom "               C"
 angular momentum value: 0  standard basis set name: "pc-4"
 input line that generated warning:
   288:       0.493730E+01           0.000000E+00           0.328540E+00
  

 **** WARNING Zero Coefficient **** on atom "               O"
 angular momentum value: 0  standard basis set name: "pc-4"
 input line that generated warning:
   415:       0.125970E+07           0.206840E-05           0.000000E+00
  

 **** WARNING Zero Coefficient **** on atom "               O"
 angular momentum value: 0  standard basis set name: "pc-4"
 input line that generated warning:
   416:       0.190110E+06           0.159600E-04           0.000000E+00
  

 **** WARNING Zero Coefficient **** on atom "               O"
 angular momentum value: 0  standard basis set name: "pc-4"
 input line that generated warning:
   417:       0.434490E+05           0.833280E-04           0.000000E+00
  

 **** WARNING Zero Coefficient **** on atom "               O"
 angular momentum value: 0  standard basis set name: "pc-4"
 input line that generated warning:
   426:       0.110930E+02           0.000000E+00           0.402600E+00
  

 **** WARNING Zero Coefficient **** on atom "               N"
 angular momentum value: 0  standard basis set name: "pc-4"
 input line that generated warning:
   346:       0.894760E+06           0.226320E-05           0.000000E+00
  

 **** WARNING Zero Coefficient **** on atom "               N"
 angular momentum value: 0  standard basis set name: "pc-4"
 input line that generated warning:
   347:       0.134830E+06           0.175410E-04           0.000000E+00
  

 **** WARNING Zero Coefficient **** on atom "               N"
 angular momentum value: 0  standard basis set name: "pc-4"
 input line that generated warning:
   348:       0.308080E+05           0.911680E-04           0.000000E+00
  

 **** WARNING Zero Coefficient **** on atom "               N"
 angular momentum value: 0  standard basis set name: "pc-4"
 input line that generated warning:
   357:       0.796880E+01           0.000000E+00           0.407130E+00
  
                      Basis "ao basis" -> "" (cartesian)
                      -----
  C (Carbon)
  ----------
            Exponent  Coefficients 
       -------------- ---------------------------------------------------------
  1 S  5.27780000E+05  0.000003
  1 S  7.91050000E+04  0.000023
  1 S  1.80060000E+04  0.000121
  1 S  5.10080000E+03  0.000515
  1 S  1.66470000E+03  0.001846
  1 S  6.01660000E+02  0.006029
  1 S  2.35400000E+02  0.017023
  1 S  9.82630000E+01  0.044077
  1 S  4.32690000E+01  0.089061
  1 S  1.98580000E+01  0.148170
  1 S  9.56920000E+00  0.061436

  2 S  1.80060000E+04  0.000000
  2 S  5.10080000E+03 -0.000004
  2 S  1.66470000E+03  0.000018
  2 S  6.01660000E+02  0.000001
  2 S  2.35400000E+02  0.000711
  2 S  9.82630000E+01  0.002535
  2 S  4.32690000E+01  0.019934
  2 S  1.98580000E+01  0.065047
  2 S  9.56920000E+00  0.270000
  2 S  4.93730000E+00  0.328540

  3 S  2.66870000E+00  1.000000

  4 S  1.46740000E+00  1.000000

  5 S  6.38630000E-01  1.000000

  6 S  3.02400000E-01  1.000000

  7 S  1.41160000E-01  1.000000

  8 S  6.37490000E-02  1.000000

  9 P  3.82210000E+02  0.000985
  9 P  9.04890000E+01  0.008585
  9 P  2.88710000E+01  0.048272
  9 P  1.03850000E+01  0.204540
  9 P  4.49720000E+00  0.498670

 10 P  2.02740000E+00  1.000000

 11 P  9.51540000E-01  1.000000

 12 P  4.48150000E-01  1.000000

 13 P  2.07210000E-01  1.000000

 14 P  9.48700000E-02  1.000000

 15 P  4.08430000E-02  1.000000

 16 D  8.40000000E+00  1.000000

 17 D  3.00000000E+00  1.000000

 18 D  1.20000000E+00  1.000000

 19 D  5.50000000E-01  1.000000

 20 D  2.50000000E-01  1.000000

 21 D  1.00000000E-01  1.000000

 22 F  2.10000000E+00  1.000000

 23 F  9.00000000E-01  1.000000

 24 F  4.00000000E-01  1.000000

 25 G  2.10000000E+00  1.000000

 26 G  9.00000000E-01  1.000000

 27 H  1.85000000E+00  1.000000

  O (Oxygen)
  ----------
            Exponent  Coefficients 
       -------------- ---------------------------------------------------------
  1 S  1.25970000E+06  0.000002
  1 S  1.90110000E+05  0.000016
  1 S  4.34490000E+04  0.000083
  1 S  1.23420000E+04  0.000352
  1 S  4.03500000E+03  0.001271
  1 S  1.45970000E+03  0.004132
  1 S  5.70660000E+02  0.011970
  1 S  2.37500000E+02  0.031561
  1 S  1.04110000E+02  0.069960
  1 S  4.75810000E+01  0.127020
  1 S  2.25460000E+01  0.118990

  2 S  1.23420000E+04 -0.000001
  2 S  4.03500000E+03  0.000007
  2 S  1.45970000E+03  0.000019
  2 S  5.70660000E+02  0.000352
  2 S  2.37500000E+02  0.001705
  2 S  1.04110000E+02  0.011412
  2 S  4.75810000E+01  0.046025
  2 S  2.25460000E+01  0.191400
  2 S  1.10930000E+01  0.402600

  3 S  5.54090000E+00  1.000000

  4 S  2.77940000E+00  1.000000

  5 S  1.28370000E+00  1.000000

  6 S  5.96490000E-01  1.000000

  7 S  2.70570000E-01  1.000000

  8 S  1.20280000E-01  1.000000

  9 P  7.08610000E+02  0.001046
  9 P  1.67860000E+02  0.009129
  9 P  5.39670000E+01  0.050977
  9 P  1.98070000E+01  0.215990
  9 P  8.38320000E+00  0.587770

 10 P  3.74470000E+00  1.000000

 11 P  1.73220000E+00  1.000000

 12 P  7.99770000E-01  1.000000

 13 P  3.63230000E-01  1.000000

 14 P  1.59630000E-01  1.000000

 15 P  6.56640000E-02  1.000000

 16 D  1.82000000E+01  1.000000

 17 D  6.00000000E+00  1.000000

 18 D  2.40000000E+00  1.000000

 19 D  1.10000000E+00  1.000000

 20 D  5.00000000E-01  1.000000

 21 D  2.00000000E-01  1.000000

 22 F  2.60000000E+00  1.000000

 23 F  1.15000000E+00  1.000000

 24 F  5.00000000E-01  1.000000

 25 G  3.05000000E+00  1.000000

 26 G  1.30000000E+00  1.000000

 27 H  2.05000000E+00  1.000000

  N (Nitrogen)
  ------------
            Exponent  Coefficients 
       -------------- ---------------------------------------------------------
  1 S  8.94760000E+05  0.000002
  1 S  1.34830000E+05  0.000018
  1 S  3.08080000E+04  0.000091
  1 S  8.75150000E+03  0.000387
  1 S  2.86200000E+03  0.001387
  1 S  1.03530000E+03  0.004550
  1 S  4.04730000E+02  0.013009
  1 S  1.68330000E+02  0.034696
  1 S  7.36950000E+01  0.074804
  1 S  3.37530000E+01  0.134570
  1 S  1.61570000E+01  0.116720

  2 S  8.75150000E+03 -0.000003
  2 S  2.86200000E+03  0.000014
  2 S  1.03530000E+03 -0.000015
  2 S  4.04730000E+02  0.000481
  2 S  1.68330000E+02  0.001538
  2 S  7.36950000E+01  0.013555
  2 S  3.37530000E+01  0.047311
  2 S  1.61570000E+01  0.201600
  2 S  7.96880000E+00  0.407130

  3 S  3.95210000E+00  1.000000

  4 S  1.94540000E+00  1.000000

  5 S  9.29290000E-01  1.000000

  6 S  4.40850000E-01  1.000000

  7 S  2.03400000E-01  1.000000

  8 S  9.12260000E-02  1.000000

  9 P  5.66230000E+02  0.000924
  9 P  1.34100000E+02  0.008090
  9 P  4.30130000E+01  0.045463
  9 P  1.56120000E+01  0.196220
  9 P  6.64270000E+00  0.517540

 10 P  2.97480000E+00  1.000000

 11 P  1.38850000E+00  1.000000

 12 P  6.50120000E-01  1.000000

 13 P  3.00280000E-01  1.000000

 14 P  1.36200000E-01  1.000000

 15 P  5.78450000E-02  1.000000

 16 D  1.28000000E+01  1.000000

 17 D  4.40000000E+00  1.000000

 18 D  1.75000000E+00  1.000000

 19 D  8.00000000E-01  1.000000

 20 D  3.70000000E-01  1.000000

 21 D  1.50000000E-01  1.000000

 22 F  2.30000000E+00  1.000000

 23 F  1.00000000E+00  1.000000

 24 F  4.50000000E-01  1.000000

 25 G  2.55000000E+00  1.000000

 26 G  1.10000000E+00  1.000000

 27 H  1.95000000E+00  1.000000

  H (Hydrogen)
  ------------
            Exponent  Coefficients 
       -------------- ---------------------------------------------------------
  1 S  3.07970000E+03  0.000235
  1 S  4.61520000E+02  0.001825
  1 S  1.05060000E+02  0.009593
  1 S  2.97640000E+01  0.040461
  1 S  9.71830000E+00  0.146070

  2 S  3.51790000E+00  1.000000

  3 S  1.37700000E+00  1.000000

  4 S  5.68310000E-01  1.000000

  5 S  2.43410000E-01  1.000000

  6 S  1.05050000E-01  1.000000

  7 S  4.41980000E-02  1.000000

  8 P  3.00000000E+01  1.000000

  9 P  6.60000000E+00  1.000000

 10 P  2.10000000E+00  1.000000

 11 P  9.50000000E-01  1.000000

 12 P  4.50000000E-01  1.000000

 13 P  1.50000000E-01  1.000000

 14 D  2.10000000E+00  1.000000

 15 D  7.00000000E-01  1.000000

 16 D  3.00000000E-01  1.000000

 17 F  2.50000000E+00  1.000000

 18 F  9.00000000E-01  1.000000

 19 G  3.20000000E+00  1.000000



 Summary of "ao basis" -> "" (cartesian)
 ------------------------------------------------------------------------------
       Tag                 Description            Shells   Functions and Types
 ---------------- ------------------------------  ------  ---------------------
 C                            pc-4                  27      146   8s7p6d3f2g1h
 O                            pc-4                  27      146   8s7p6d3f2g1h
 N                            pc-4                  27      146   8s7p6d3f2g1h
 H                            pc-4                  19       78   7s6p3d2f1g


  pbe96 is a nonlocal functional; adding pw91lda local functional. 


                           NWChem Geometry Optimization
                           ----------------------------




                 benzamide DIIS in pc-4 basis set with grid medium


 maximum gradient threshold         (gmax) =   0.000450
 rms gradient threshold             (grms) =   0.000300
 maximum cartesian step threshold   (xmax) =   0.001800
 rms cartesian step threshold       (xrms) =   0.001200
 fixed trust radius                (trust) =   0.300000
 maximum step size to saddle      (sadstp) =   0.100000
 energy precision                  (eprec) =   5.0D-06
 maximum number of steps          (nptopt) =   20
 initial hessian option           (inhess) =    0
 line search option               (linopt) =    1
 hessian update option            (modupd) =    1
 saddle point option              (modsad) =    0
 initial eigen-mode to follow     (moddir) =    0
 initial variable to follow       (vardir) =    0
 follow first negative mode     (firstneg) =    T
 apply conjugacy                    (opcg) =    F
 source of zmatrix                         =   autoz   


          -------------------
          Energy Minimization
          -------------------


 Names of Z-matrix variables 
    1              2              3              4              5         
    6              7              8              9             10         
   11             12             13             14             15         
   16             17             18             19             20         
   21             22             23             24             25         
   26             27             28             29             30         
   31             32             33             34             35         
   36             37             38             39             40         
   41             42             43             44             45         
   46             47             48             49             50         
   51             52             53             54             55         
   56             57             58             59             60         
   61             62             63             64             65         
   66             67             68             69             70         
   71             72         

 Variables with the same non-blank name are constrained to be equal


 Using diagonal initial Hessian 
 Scaling for Hessian diagonals: bonds = 1.00  angles = 0.25  torsions = 0.10

          --------
          Step   0
          --------


                         Geometry "geometry" -> "geometry"
                         ---------------------------------

 Output coordinates in a.u. (scale by  1.000000000 to convert to a.u.)

  No.       Tag          Charge          X              Y              Z
 ---- ---------------- ---------- -------------- -------------- --------------
    1 C                    6.0000    -0.03614211    -0.42053916     0.01126238
    2 C                    6.0000     2.22682459     0.90517052     0.33137610
    3 C                    6.0000     2.22992887     3.53827291     0.35148544
    4 C                    6.0000    -0.02480912     4.85824384     0.02734558
    5 C                    6.0000    -2.28089903     3.54226215    -0.33191181
    6 C                    6.0000    -2.28936248     0.91463370    -0.32032235
    7 C                    6.0000    -0.14244891    -3.24634049     0.05524001
    8 O                    8.0000    -2.11732895    -4.34932595     0.68655829
    9 N                    7.0000     1.95702837    -4.49657036    -0.59018118
   10 H                    1.0000     3.99204501    -0.11393705     0.60632692
   11 H                    1.0000     3.99538978     4.54427784     0.62146220
   12 H                    1.0000    -0.03007003     6.90519702     0.03786346
   13 H                    1.0000    -4.04552126     4.55957129    -0.62368055
   14 H                    1.0000    -4.03594231    -0.13380540    -0.55478304
   15 H                    1.0000     1.87234178    -6.42341934    -0.69532107
   16 H                    1.0000     3.39263918    -3.61750506    -1.49991825

      Atomic Mass 
      ----------- 

      C                 12.000000
      O                 15.994910
      N                 14.003070
      H                  1.007825


 Effective nuclear repulsion energy (a.u.)     405.0018246615

            Nuclear Dipole moment (a.u.) 
            ----------------------------
        X                 Y               Z
 ---------------- ---------------- ----------------
    -0.0000000000     0.0000000000     0.0000000000


                                 NWChem DFT Module
                                 -----------------


                 benzamide DIIS in pc-4 basis set with grid medium




 Summary of "ao basis" -> "ao basis" (cartesian)
 ------------------------------------------------------------------------------
       Tag                 Description            Shells   Functions and Types
 ---------------- ------------------------------  ------  ---------------------
 C                            pc-4                  27      146   8s7p6d3f2g1h
 O                            pc-4                  27      146   8s7p6d3f2g1h
 N                            pc-4                  27      146   8s7p6d3f2g1h
 H                            pc-4                  19       78   7s6p3d2f1g


  Caching 1-el integrals 

            General Information
            -------------------
          SCF calculation type: DFT
          Wavefunction type:  closed shell.
          No. of atoms     :    16
          No. of electrons :    64
           Alpha electrons :    32
            Beta electrons :    32
          Charge           :     0
          Spin multiplicity:     1
          Use of symmetry is: off; symmetry adaption is: off
          Maximum number of iterations: 100
          This is a Direct SCF calculation.
          AO basis - number of functions:  1860
                     number of shells:   376
          Convergence on energy requested:  1.00D-06
          Convergence on density requested:  1.00D-06
          Convergence on gradient requested:  5.00D-04

              XC Information
              --------------
          PerdewBurkeErnzerhof Exchange Functional  1.000          
            Perdew 1991 LDA Correlation Functional  1.000 local    
           PerdewBurkeErnz. Correlation Functional  1.000 non-local

             Grid Information
             ----------------
          Grid used for XC integration:  medium    
          Radial quadrature: Mura-Knowles        
          Angular quadrature: Lebedev. 
          Tag              B.-S. Rad. Rad. Pts. Rad. Cut. Ang. Pts.
          ---              ---------- --------- --------- ---------
          C                   0.70       49          17.0       434
          O                   0.60       49          17.0       434
          N                   0.65       49          17.0       434
          H                   0.35       45          18.0       434
          Grid pruning is: on 
          Number of quadrature shells:   756
          Spatial weights used:  Erf1

          Convergence Information
          -----------------------
          Convergence aids based upon iterative change in 
          total energy or number of iterations. 
          Levelshifting, if invoked, occurs when the 
          HOMO/LUMO gap drops below (HL_TOL):  1.00D-02
          DIIS, if invoked, will attempt to extrapolate 
          using up to (NFOCK): 10 stored Fock matrices.

                    Damping( 0%)  Levelshifting(0.5)       DIIS
                  --------------- ------------------- ---------------
          dE  on:    start            ASAP                start   
          dE off:    2 iters        100 iters           100 iters 

          Smearing applied:  0.16D-02 (hartree)

      Screening Tolerance Information
      -------------------------------
          Density screening/tol_rho:  1.00D-10
          AO Gaussian exp screening on grid/accAOfunc:  14
          CD Gaussian exp screening on grid/accCDfunc:  20
          XC Gaussian exp screening on grid/accXCfunc:  20
          Schwarz screening/accCoul:  1.00D-08


 WARNING : Found   131 linear dependencies 
 S eigenvalue threshold:     1.00000E-05
 Smallest S eigenvalue :     4.04641E-10
 Largest  S eigenvalue :     9.85755E-06


 !! The overlap matrix has 131 vectors deemed linearly dependent with
    eigenvalues:
 4.05D-10 1.53D-09 1.83D-09 1.90D-09 1.96D-09 1.98D-09 2.01D-09 2.22D-09
 4.25D-09 6.40D-09 1.21D-08 1.50D-08 2.09D-08 3.01D-08 3.65D-08 4.26D-08
 4.64D-08 7.67D-08 1.52D-07 1.61D-07 2.61D-07 2.72D-07 2.76D-07 2.97D-07
 3.08D-07 3.12D-07 3.23D-07 4.03D-07 4.09D-07 4.28D-07 4.45D-07 4.86D-07
 4.88D-07 5.74D-07 5.91D-07 6.16D-07 6.40D-07 6.62D-07 6.67D-07 6.80D-07
 6.85D-07 6.99D-07 7.32D-07 7.41D-07 7.45D-07 7.68D-07 8.19D-07 8.41D-07
 8.51D-07 8.70D-07 9.00D-07 9.13D-07 9.48D-07 9.86D-07 1.02D-06 1.04D-06
 1.11D-06 1.13D-06 1.24D-06 1.25D-06 1.28D-06 1.36D-06 1.44D-06 1.45D-06
 1.51D-06 1.56D-06 1.57D-06 1.61D-06 1.61D-06 1.65D-06 1.69D-06 1.72D-06
 1.73D-06 1.81D-06 1.84D-06 1.85D-06 1.97D-06 2.05D-06 2.18D-06 2.28D-06
 2.43D-06 2.48D-06 2.54D-06 2.71D-06 2.75D-06 2.81D-06 3.01D-06 3.10D-06
 3.15D-06 3.22D-06 3.27D-06 3.37D-06 3.42D-06 3.58D-06 3.68D-06 3.72D-06
 3.74D-06 3.87D-06 4.08D-06 4.15D-06 4.27D-06 4.40D-06 4.60D-06 4.64D-06
 4.86D-06 4.92D-06 5.02D-06 5.29D-06 5.36D-06 5.44D-06 6.01D-06 6.18D-06
 6.50D-06 6.53D-06 6.66D-06 6.74D-06 7.02D-06 7.20D-06 7.35D-06 7.62D-06
 7.83D-06 7.94D-06 8.16D-06 8.58D-06 8.80D-06 8.86D-06 9.03D-06 9.21D-06
 9.48D-06 9.69D-06 9.86D-06


      Superposition of Atomic Density Guess
      -------------------------------------

 Sum of atomic energies:        -396.30747106

      Non-variational initial energy
      ------------------------------

 Total energy =    -402.315129
 1-e energy   =   -1337.861522
 2-e energy   =     530.544568
 HOMO         =      -0.310360
 LUMO         =      -0.051428

   Time after variat. SCF:   1648.4
   Time prior to 1st pass:   1648.4

 Grid_pts file          = ./benzamide_pc4_DIIS.gridpts.00
 Record size in doubles =  12289        No. of grid_pts per rec  =   3070
 Max. records in memory =      3        Max. recs in file   = 276197736

 Grid integrated density:      63.680208646588
 Requested integration accuracy:   0.10E-05
 sigma=  0.16D-02 eFermi= -0.29699 T*S=  0.00E+00 nel(1)=   64.00 nel(

           Memory utilization after 1st SCF pass: 
           Heap Space remaining (MW):      163.77           163772742
          Stack Space remaining (MW):      163.83           163829148

   convergence    iter        energy       DeltaE   RMS-Dens  Diis-err    time
 ---------------- ----- ----------------- --------- --------- ---------  ------
 d= 0,ls=0.0,diis     1   -396.8843233697 -8.02D+02  1.25D+02  9.24D+04  3935.6
 Grid integrated density:      63.997727588090
 Requested integration accuracy:   0.10E-05
 sigma=  0.16D-02 eFermi= -1.44189 T*S=  0.00E+00 nel(1)=   64.00 nel(
 d= 0,ls=0.0,diis     2   -227.2927633502  1.70D+02  9.15D+01  1.43D+04  6400.1
 Grid integrated density:      64.000124673249
 Requested integration accuracy:   0.10E-05
 sigma=  0.16D-02 eFermi= -1.21537 T*S=  0.00E+00 nel(1)=   64.00 nel(
 d= 0,ls=0.0,diis     3   -327.5094274291 -1.00D+02  2.14D+01  3.10D+03  8844.3
 sigma=  0.16D-02 eFermi= -1.06580 T*S=  0.00E+00 nel(1)=   64.00 nel(
 d= 0,ls=0.0,diis     4   -137.1282806798  1.90D+02  1.25D+01  2.90D+03 11317.5
 sigma=  0.16D-02 eFermi= -3.30002 T*S= -1.05E-22 nel(1)=   64.00 nel(
 d= 0,ls=0.0,diis     5   -294.0523888789 -1.57D+02  7.27D+01  7.61D+02 13797.3
 sigma=  0.16D-02 eFermi= -1.19129 T*S=  0.00E+00 nel(1)=   64.00 nel(
 d= 0,ls=0.0,diis     6    -39.4932035940  2.55D+02  3.52D+01  2.64D+03 15797.4
 Grid integrated density:      63.999899368026
 Requested integration accuracy:   0.10E-05
 sigma=  0.16D-02 eFermi= -0.23621 T*S=  0.00E+00 nel(1)=   64.00 nel(
 d= 0,ls=0.0,diis     7   -282.4925710943 -2.43D+02  3.52D+01  5.67D+02 18197.7
 sigma=  0.16D-02 eFermi= -0.60054 T*S= -1.43E-03 nel(1)=   64.00 nel(
 d= 0,ls=0.0,diis     8   -330.5177914365 -4.80D+01  4.67D-02  2.89D+02 20072.4
 sigma=  0.16D-02 eFermi= -0.28939 T*S=  0.00E+00 nel(1)=   64.00 nel(
 d= 0,ls=0.0,diis     9   -306.1546257115  2.44D+01  5.97D-03  3.68D+02 21960.9
 sigma=  0.16D-02 eFermi= -0.11550 T*S= -3.37E-04 nel(1)=   64.00 nel(
 d= 0,ls=0.0,diis    10   -368.5900692327 -6.24D+01  3.18D-03  1.49D+02 23751.8
 sigma=  0.16D-02 eFermi= -0.25669 T*S= -2.40E-14 nel(1)=   64.00 nel(
 d= 0,ls=0.0,diis    11   -391.1764552355 -2.26D+01  3.39D-03  4.84D+01 25592.2
 sigma=  0.16D-02 eFermi= -0.15233 T*S=  0.00E+00 nel(1)=   64.00 nel(
 d= 0,ls=0.0,diis    12   -380.8592154982  1.03D+01  1.03D-03  1.14D+02 27461.7
 sigma=  0.16D-02 eFermi= -0.08072 T*S= -3.99E-12 nel(1)=   64.00 nel(
 d= 0,ls=0.0,diis    13   -400.3920474295 -1.95D+01  6.09D-04  1.94D+00 29762.5
 sigma=  0.16D-02 eFermi= -0.09678 T*S=  0.00E+00 nel(1)=   64.00 nel(
 d= 0,ls=0.0,diis    14   -399.0246319286  1.37D+00  5.23D-04  1.38D+01 31779.8
 sigma=  0.16D-02 eFermi= -0.13446 T*S=  0.00E+00 nel(1)=   64.00 nel(
 d= 0,ls=0.0,diis    15   -400.6183958153 -1.59D+00  9.82D-05  2.74D-01 33658.5
 sigma=  0.16D-02 eFermi= -0.09060 T*S= -2.63E-19 nel(1)=   64.00 nel(
  Resetting Diis
 d= 0,ls=0.0,diis    16   -400.6205051165 -2.11D-03  5.36D-05  2.85D-01 35522.6
 sigma=  0.16D-02 eFermi= -0.13720 T*S=  0.00E+00 nel(1)=   64.00 nel(
 d= 0,ls=0.0,diis    17   -400.6514632039 -3.10D-02  3.33D-05  8.42D-03 37356.6
