
     Program PWSCF v.6.5 starts on  7May2021 at 18:10:11 

     This program is part of the open-source Quantum ESPRESSO suite
     for quantum simulation of materials; please cite
         "P. Giannozzi et al., J. Phys.:Condens. Matter 21 395502 (2009);
         "P. Giannozzi et al., J. Phys.:Condens. Matter 29 465901 (2017);
          URL http://www.quantum-espresso.org", 
     in publications or presentations arising from this work. More details at
     http://www.quantum-espresso.org/quote

     Parallel version (MPI), running on    54 processors

     MPI processes distributed on     3 nodes
     R & G space division:  proc/nbgrp/npool/nimage =      54
     Reading input from mo4x.scf.in

     Current dimensions of program PWSCF are:
     Max number of different atomic species (ntypx) = 10
     Max number of k-points (npk) =  40000
     Max angular momentum in pseudopotentials (lmaxx) =  3

     gamma-point specific algorithms are used

     Subspace diagonalization in iterative solution of the eigenvalue problem:
     a serial algorithm will be used

     Message from routine setup:
     using ibrav=0 with symmetry is DISCOURAGED, use correct ibrav instead
 
     Parallelization info
     --------------------
     sticks:   dense  smooth     PW     G-vecs:    dense   smooth      PW
     Min         332     332     82                33724    33724    4214
     Max         334     334     84                33738    33738    4228
     Sum       18033   18033   4501              1821687  1821687  227911
 


     bravais-lattice index     =            0
     lattice parameter (alat)  =      23.8000  a.u.
     unit-cell volume          =   13481.2720 (a.u.)^3
     number of atoms/cell      =          127
     number of atomic types    =            1
     number of electrons       =      1778.00
     number of Kohn-Sham states=         1067
     kinetic-energy cutoff     =     100.0000  Ry
     charge density cutoff     =     400.0000  Ry
     convergence threshold     =      1.0E-07
     mixing beta               =       0.7000
     number of iterations used =            8  TF        mixing
     Exchange-correlation= PBE
                           (   1   4   3   4   0   0   0)

     celldm(1)=  23.800000  celldm(2)=   0.000000  celldm(3)=   0.000000
     celldm(4)=   0.000000  celldm(5)=   0.000000  celldm(6)=   0.000000

     crystal axes: (cart. coord. in units of alat)
               a(1) = (   1.000000   0.000000   0.000000 )  
               a(2) = (   0.000000   1.000000   0.000000 )  
               a(3) = (   0.000000   0.000000   1.000000 )  

     reciprocal axes: (cart. coord. in units 2 pi/alat)
               b(1) = (  1.000000  0.000000  0.000000 )  
               b(2) = (  0.000000  1.000000  0.000000 )  
               b(3) = (  0.000000  0.000000  1.000000 )  


     PseudoPot. # 1 for Mo read from file:
     ./Mo_ONCV_PBE-1.0.upf
     MD5 check sum: e75ed155aa411dd1617a1e98b4cfb1d3
     Pseudo is Norm-conserving, Zval = 14.0
     Generated using ONCVPSP code by D. R. Hamann
     Using radial grid of  602 points,  6 beta functions with: 
                l(1) =   0
                l(2) =   0
                l(3) =   1
                l(4) =   1
                l(5) =   2
                l(6) =   2

     atomic species   valence    mass     pseudopotential
        42            14.00    95.95000     Mo( 1.00)

     48 Sym. Ops., with inversion, found



   Cartesian axes

     site n.     atom                  positions (alat units)
         1           42  tau(   1) = (   0.1250000   0.1250000   0.1250000  )
         2           42  tau(   2) = (   0.0000000   0.0000000   0.2500000  )
         3           42  tau(   3) = (   0.1250000   0.1250000   0.3750000  )
         4           42  tau(   4) = (   0.0000000   0.0000000   0.5000000  )
         5           42  tau(   5) = (   0.1250000   0.1250000   0.6250000  )
         6           42  tau(   6) = (   0.0000000   0.0000000   0.7500000  )
         7           42  tau(   7) = (   0.1250000   0.1250000   0.8750000  )
         8           42  tau(   8) = (   0.0000000   0.2500000   0.0000000  )
         9           42  tau(   9) = (   0.1250000   0.3750000   0.1250000  )
        10           42  tau(  10) = (   0.0000000   0.2500000   0.2500000  )
        11           42  tau(  11) = (   0.1250000   0.3750000   0.3750000  )
        12           42  tau(  12) = (   0.0000000   0.2500000   0.5000000  )
        13           42  tau(  13) = (   0.1250000   0.3750000   0.6250000  )
        14           42  tau(  14) = (   0.0000000   0.2500000   0.7500000  )
        15           42  tau(  15) = (   0.1250000   0.3750000   0.8750000  )
        16           42  tau(  16) = (   0.0000000   0.5000000   0.0000000  )
        17           42  tau(  17) = (   0.1250000   0.6250000   0.1250000  )
        18           42  tau(  18) = (   0.0000000   0.5000000   0.2500000  )
        19           42  tau(  19) = (   0.1250000   0.6250000   0.3750000  )
        20           42  tau(  20) = (   0.0000000   0.5000000   0.5000000  )
        21           42  tau(  21) = (   0.1250000   0.6250000   0.6250000  )
        22           42  tau(  22) = (   0.0000000   0.5000000   0.7500000  )
        23           42  tau(  23) = (   0.1250000   0.6250000   0.8750000  )
        24           42  tau(  24) = (   0.0000000   0.7500000   0.0000000  )
        25           42  tau(  25) = (   0.1250000   0.8750000   0.1250000  )
        26           42  tau(  26) = (   0.0000000   0.7500000   0.2500000  )
        27           42  tau(  27) = (   0.1250000   0.8750000   0.3750000  )
        28           42  tau(  28) = (   0.0000000   0.7500000   0.5000000  )
        29           42  tau(  29) = (   0.1250000   0.8750000   0.6250000  )
        30           42  tau(  30) = (   0.0000000   0.7500000   0.7500000  )
        31           42  tau(  31) = (   0.1250000   0.8750000   0.8750000  )
        32           42  tau(  32) = (   0.2500000   0.0000000   0.0000000  )
        33           42  tau(  33) = (   0.3750000   0.1250000   0.1250000  )
        34           42  tau(  34) = (   0.2500000   0.0000000   0.2500000  )
        35           42  tau(  35) = (   0.3750000   0.1250000   0.3750000  )
        36           42  tau(  36) = (   0.2500000   0.0000000   0.5000000  )
        37           42  tau(  37) = (   0.3750000   0.1250000   0.6250000  )
        38           42  tau(  38) = (   0.2500000   0.0000000   0.7500000  )
        39           42  tau(  39) = (   0.3750000   0.1250000   0.8750000  )
        40           42  tau(  40) = (   0.2500000   0.2500000   0.0000000  )
        41           42  tau(  41) = (   0.3750000   0.3750000   0.1250000  )
        42           42  tau(  42) = (   0.2500000   0.2500000   0.2500000  )
        43           42  tau(  43) = (   0.3750000   0.3750000   0.3750000  )
        44           42  tau(  44) = (   0.2500000   0.2500000   0.5000000  )
        45           42  tau(  45) = (   0.3750000   0.3750000   0.6250000  )
        46           42  tau(  46) = (   0.2500000   0.2500000   0.7500000  )
        47           42  tau(  47) = (   0.3750000   0.3750000   0.8750000  )
        48           42  tau(  48) = (   0.2500000   0.5000000   0.0000000  )
        49           42  tau(  49) = (   0.3750000   0.6250000   0.1250000  )
        50           42  tau(  50) = (   0.2500000   0.5000000   0.2500000  )
        51           42  tau(  51) = (   0.3750000   0.6250000   0.3750000  )
        52           42  tau(  52) = (   0.2500000   0.5000000   0.5000000  )
        53           42  tau(  53) = (   0.3750000   0.6250000   0.6250000  )
        54           42  tau(  54) = (   0.2500000   0.5000000   0.7500000  )
        55           42  tau(  55) = (   0.3750000   0.6250000   0.8750000  )
        56           42  tau(  56) = (   0.2500000   0.7500000   0.0000000  )
        57           42  tau(  57) = (   0.3750000   0.8750000   0.1250000  )
        58           42  tau(  58) = (   0.2500000   0.7500000   0.2500000  )
        59           42  tau(  59) = (   0.3750000   0.8750000   0.3750000  )
        60           42  tau(  60) = (   0.2500000   0.7500000   0.5000000  )
        61           42  tau(  61) = (   0.3750000   0.8750000   0.6250000  )
        62           42  tau(  62) = (   0.2500000   0.7500000   0.7500000  )
        63           42  tau(  63) = (   0.3750000   0.8750000   0.8750000  )
        64           42  tau(  64) = (   0.5000000   0.0000000   0.0000000  )
        65           42  tau(  65) = (   0.6250000   0.1250000   0.1250000  )
        66           42  tau(  66) = (   0.5000000   0.0000000   0.2500000  )
        67           42  tau(  67) = (   0.6250000   0.1250000   0.3750000  )
        68           42  tau(  68) = (   0.5000000   0.0000000   0.5000000  )
        69           42  tau(  69) = (   0.6250000   0.1250000   0.6250000  )
        70           42  tau(  70) = (   0.5000000   0.0000000   0.7500000  )
        71           42  tau(  71) = (   0.6250000   0.1250000   0.8750000  )
        72           42  tau(  72) = (   0.5000000   0.2500000   0.0000000  )
        73           42  tau(  73) = (   0.6250000   0.3750000   0.1250000  )
        74           42  tau(  74) = (   0.5000000   0.2500000   0.2500000  )
        75           42  tau(  75) = (   0.6250000   0.3750000   0.3750000  )
        76           42  tau(  76) = (   0.5000000   0.2500000   0.5000000  )
        77           42  tau(  77) = (   0.6250000   0.3750000   0.6250000  )
        78           42  tau(  78) = (   0.5000000   0.2500000   0.7500000  )
        79           42  tau(  79) = (   0.6250000   0.3750000   0.8750000  )
        80           42  tau(  80) = (   0.5000000   0.5000000   0.0000000  )
        81           42  tau(  81) = (   0.6250000   0.6250000   0.1250000  )
        82           42  tau(  82) = (   0.5000000   0.5000000   0.2500000  )
        83           42  tau(  83) = (   0.6250000   0.6250000   0.3750000  )
        84           42  tau(  84) = (   0.5000000   0.5000000   0.5000000  )
        85           42  tau(  85) = (   0.6250000   0.6250000   0.6250000  )
        86           42  tau(  86) = (   0.5000000   0.5000000   0.7500000  )
        87           42  tau(  87) = (   0.6250000   0.6250000   0.8750000  )
        88           42  tau(  88) = (   0.5000000   0.7500000   0.0000000  )
        89           42  tau(  89) = (   0.6250000   0.8750000   0.1250000  )
        90           42  tau(  90) = (   0.5000000   0.7500000   0.2500000  )
        91           42  tau(  91) = (   0.6250000   0.8750000   0.3750000  )
        92           42  tau(  92) = (   0.5000000   0.7500000   0.5000000  )
        93           42  tau(  93) = (   0.6250000   0.8750000   0.6250000  )
        94           42  tau(  94) = (   0.5000000   0.7500000   0.7500000  )
        95           42  tau(  95) = (   0.6250000   0.8750000   0.8750000  )
        96           42  tau(  96) = (   0.7500000   0.0000000   0.0000000  )
        97           42  tau(  97) = (   0.8750000   0.1250000   0.1250000  )
        98           42  tau(  98) = (   0.7500000   0.0000000   0.2500000  )
        99           42  tau(  99) = (   0.8750000   0.1250000   0.3750000  )
       100           42  tau( 100) = (   0.7500000   0.0000000   0.5000000  )
       101           42  tau( 101) = (   0.8750000   0.1250000   0.6250000  )
       102           42  tau( 102) = (   0.7500000   0.0000000   0.7500000  )
       103           42  tau( 103) = (   0.8750000   0.1250000   0.8750000  )
       104           42  tau( 104) = (   0.7500000   0.2500000   0.0000000  )
       105           42  tau( 105) = (   0.8750000   0.3750000   0.1250000  )
       106           42  tau( 106) = (   0.7500000   0.2500000   0.2500000  )
       107           42  tau( 107) = (   0.8750000   0.3750000   0.3750000  )
       108           42  tau( 108) = (   0.7500000   0.2500000   0.5000000  )
       109           42  tau( 109) = (   0.8750000   0.3750000   0.6250000  )
       110           42  tau( 110) = (   0.7500000   0.2500000   0.7500000  )
       111           42  tau( 111) = (   0.8750000   0.3750000   0.8750000  )
       112           42  tau( 112) = (   0.7500000   0.5000000   0.0000000  )
       113           42  tau( 113) = (   0.8750000   0.6250000   0.1250000  )
       114           42  tau( 114) = (   0.7500000   0.5000000   0.2500000  )
       115           42  tau( 115) = (   0.8750000   0.6250000   0.3750000  )
       116           42  tau( 116) = (   0.7500000   0.5000000   0.5000000  )
       117           42  tau( 117) = (   0.8750000   0.6250000   0.6250000  )
       118           42  tau( 118) = (   0.7500000   0.5000000   0.7500000  )
       119           42  tau( 119) = (   0.8750000   0.6250000   0.8750000  )
       120           42  tau( 120) = (   0.7500000   0.7500000   0.0000000  )
       121           42  tau( 121) = (   0.8750000   0.8750000   0.1250000  )
       122           42  tau( 122) = (   0.7500000   0.7500000   0.2500000  )
       123           42  tau( 123) = (   0.8750000   0.8750000   0.3750000  )
       124           42  tau( 124) = (   0.7500000   0.7500000   0.5000000  )
       125           42  tau( 125) = (   0.8750000   0.8750000   0.6250000  )
       126           42  tau( 126) = (   0.7500000   0.7500000   0.7500000  )
       127           42  tau( 127) = (   0.8750000   0.8750000   0.8750000  )

     number of k points=     1  Fermi-Dirac smearing, width (Ry)=  0.0032
                       cart. coord. in units 2pi/alat
        k(    1) = (   0.0000000   0.0000000   0.0000000), wk =   2.0000000

     Dense  grid:   910844 G-vectors     FFT dimensions: ( 160, 160, 160)

     Estimated max dynamical RAM per process >     836.13 MB

     Estimated total dynamical RAM >      44.09 GB

     Initial potential from superposition of free atoms

     starting charge 1766.48269, renormalised to 1778.00000
     Starting wfcs are random

     total cpu time spent up to now is        6.0 secs

     Self-consistent Calculation

     iteration #  1     ecut=   100.00 Ry     beta= 0.70
     Davidson diagonalization with overlap
     ethr =  1.00E-02,  avg # of iterations =  8.0

     Threshold (ethr) on eigenvalues was too large:
     Diagonalizing with lowered threshold

     Davidson diagonalization with overlap
     ethr =  4.49E-04,  avg # of iterations =  7.0

     total cpu time spent up to now is      151.9 secs

     total energy              =  -17419.16167857 Ry
     Harris-Foulkes estimate   =  -17422.34496021 Ry
     estimated scf accuracy    <       7.54339845 Ry

     iteration #  2     ecut=   100.00 Ry     beta= 0.70
     Davidson diagonalization with overlap
     ethr =  4.24E-04,  avg # of iterations =  2.0

     total cpu time spent up to now is      173.3 secs

     total energy              =  -17419.50567268 Ry
     Harris-Foulkes estimate   =  -17419.85873672 Ry
     estimated scf accuracy    <       0.84541514 Ry

     iteration #  3     ecut=   100.00 Ry     beta= 0.70
     Davidson diagonalization with overlap
     ethr =  4.75E-05,  avg # of iterations = 10.0

     total cpu time spent up to now is      254.5 secs

     total energy              =  -17419.63601723 Ry
     Harris-Foulkes estimate   =  -17419.64024635 Ry
     estimated scf accuracy    <       0.05476561 Ry

     iteration #  4     ecut=   100.00 Ry     beta= 0.70
     Davidson diagonalization with overlap
     c_bands:  1 eigenvalues not converged
     ethr =  3.08E-06,  avg # of iterations = 20.0

     total cpu time spent up to now is      346.2 secs

     total energy              =  -17419.63814516 Ry
     Harris-Foulkes estimate   =  -17419.64032114 Ry
     estimated scf accuracy    <       0.01369039 Ry

     iteration #  5     ecut=   100.00 Ry     beta= 0.70
     Davidson diagonalization with overlap
     ethr =  7.70E-07,  avg # of iterations =  6.0

     total cpu time spent up to now is      379.3 secs

     total energy              =  -17419.63907990 Ry
     Harris-Foulkes estimate   =  -17419.63941812 Ry
     estimated scf accuracy    <       0.00308966 Ry

     iteration #  6     ecut=   100.00 Ry     beta= 0.70
     Davidson diagonalization with overlap
     ethr =  1.74E-07,  avg # of iterations =  3.0

     total cpu time spent up to now is      400.9 secs

     total energy              =  -17419.63899183 Ry
     Harris-Foulkes estimate   =  -17419.63920386 Ry
     estimated scf accuracy    <       0.00104144 Ry

     iteration #  7     ecut=   100.00 Ry     beta= 0.70
     Davidson diagonalization with overlap
     ethr =  5.86E-08,  avg # of iterations =  4.0

     total cpu time spent up to now is      427.2 secs

     total energy              =  -17419.63909306 Ry
     Harris-Foulkes estimate   =  -17419.63910284 Ry
     estimated scf accuracy    <       0.00008562 Ry

     iteration #  8     ecut=   100.00 Ry     beta= 0.70
     Davidson diagonalization with overlap
     ethr =  4.82E-09,  avg # of iterations =  4.0

     total cpu time spent up to now is      458.0 secs

     total energy              =  -17419.63911039 Ry
     Harris-Foulkes estimate   =  -17419.63910887 Ry
     estimated scf accuracy    <       0.00001882 Ry

     iteration #  9     ecut=   100.00 Ry     beta= 0.70
     Davidson diagonalization with overlap
     ethr =  1.06E-09,  avg # of iterations =  3.0

     total cpu time spent up to now is      480.2 secs

     total energy              =  -17419.63911390 Ry
     Harris-Foulkes estimate   =  -17419.63911221 Ry
     estimated scf accuracy    <       0.00000402 Ry

     iteration # 10     ecut=   100.00 Ry     beta= 0.70
     Davidson diagonalization with overlap
     ethr =  2.26E-10,  avg # of iterations =  3.0

     total cpu time spent up to now is      503.0 secs

     total energy              =  -17419.63911445 Ry
     Harris-Foulkes estimate   =  -17419.63911430 Ry
     estimated scf accuracy    <       0.00000064 Ry

     iteration # 11     ecut=   100.00 Ry     beta= 0.70
     Davidson diagonalization with overlap
     ethr =  3.58E-11,  avg # of iterations =  3.0

     total cpu time spent up to now is      526.0 secs

     total energy              =  -17419.63911461 Ry
     Harris-Foulkes estimate   =  -17419.63911452 Ry
     estimated scf accuracy    <       0.00000011 Ry

     iteration # 12     ecut=   100.00 Ry     beta= 0.70
     Davidson diagonalization with overlap
     ethr =  6.25E-12,  avg # of iterations =  3.0

     total cpu time spent up to now is      550.4 secs

     End of self-consistent calculation

          k = 0.0000 0.0000 0.0000 (113956 PWs)   bands (ev):

   -40.1570 -40.0835 -40.0835 -40.0833 -40.0833 -40.0833 -40.0779 -40.0307
   -40.0307 -40.0307 -40.0257 -40.0257 -40.0257 -40.0236 -40.0236 -40.0218
   -40.0218 -40.0218 -39.9979 -39.9824 -39.9824 -39.9824 -39.9794 -39.9748
   -39.9748 -39.9748 -39.9487 -39.9210 -39.9209 -39.9207 -39.9207 -39.9207
   -39.9201 -39.9201 -39.9201 -39.9158 -39.9137 -39.9127 -39.9081 -39.9081
   -39.9081 -39.9070 -39.9070 -39.9059 -39.9059 -39.9059 -39.9057 -39.9057
   -39.9057 -39.9033 -39.9033 -39.9033 -39.9013 -39.9013 -39.9013 -39.9006
   -39.8993 -39.8993 -39.8952 -39.8952 -39.8948 -39.8948 -39.8948 -39.8939
   -39.8939 -39.8927 -39.8927 -39.8927 -39.8899 -39.8899 -39.8899 -39.8883
   -39.8883 -39.8883 -39.8873 -39.8863 -39.8863 -39.8863 -39.8848 -39.8848
   -39.8848 -39.8821 -39.8821 -39.8791 -39.8791 -39.8777 -39.8751 -39.8734
   -39.8734 -39.8734 -39.8505 -39.8453 -39.8453 -39.8453 -39.8439 -39.8439
   -39.8439 -39.8321 -39.8319 -39.8319 -39.8213 -39.8182 -39.8182 -39.8182
   -39.8167 -39.8167 -39.8167 -39.8035 -39.8020 -39.8020 -39.8020 -39.7939
   -39.7805 -39.7805 -39.7797 -39.7797 -39.7797 -39.7780 -39.7780 -39.7780
   -39.7539 -39.7539 -39.7380 -39.7292 -39.7292 -39.7292 -39.6841 -14.8364
   -14.8364 -14.8364 -14.8240 -14.8240 -14.8240 -14.6383 -14.6383 -14.6383
   -14.6364 -14.6364 -14.6364 -14.6351 -14.6351 -14.6351 -14.6315 -14.6315
   -14.6315 -14.6254 -14.6237 -14.6237 -14.6234 -14.6234 -14.6234 -14.6186
   -14.6186 -14.6186 -14.6148 -14.6148 -14.6148 -14.5969 -14.5969 -14.5969
   -14.5968 -14.5968 -14.5968 -14.5968 -14.5959 -14.5959 -14.5959 -14.5949
   -14.5949 -14.5949 -14.5947 -14.5947 -14.5933 -14.5933 -14.5933 -14.5914
   -14.5901 -14.5901 -14.5880 -14.5880 -14.5880 -14.5810 -14.5810 -14.5810
   -14.5794 -14.5794 -14.5769 -14.5769 -14.5769 -14.5724 -14.5724 -14.5724
   -14.5703 -14.5590 -14.5590 -14.5590 -14.5590 -14.5590 -14.5535 -14.5531
   -14.5531 -14.5531 -14.4817 -14.4817 -14.4817 -14.4444 -14.4444 -14.4440
   -14.4440 -14.4440 -14.4393 -14.4393 -14.4393 -14.4366 -14.4366 -14.4366
   -14.4327 -14.4327 -14.4122 -14.4122 -14.4122 -14.4004 -14.4004 -14.4004
   -14.3824 -14.3781 -14.3781 -14.3622 -14.3622 -14.3622 -14.3501 -14.3495
   -14.3495 -14.3495 -14.3402 -14.3060 -14.3060 -14.3060 -14.2534 -14.2534
   -14.2534 -14.2497 -14.2497 -14.2497 -14.2494 -14.2494 -14.2494 -14.2191
   -14.2191 -14.2191 -14.1779 -14.1779 -14.1758 -14.1758 -14.1758 -14.1739
   -14.1553 -14.1553 -14.1534 -14.1534 -14.1534 -14.1504 -14.1504 -14.1504
   -14.1400 -14.1400 -14.1399 -14.1399 -14.1399 -14.1397 -14.1397 -14.1397
   -14.1392 -14.1382 -14.1382 -14.1382 -14.1354 -14.1354 -14.1354 -14.1258
   -14.1258 -14.1258 -14.1201 -14.0761 -14.0761 -14.0761 -14.0332 -14.0332
   -14.0308 -14.0270 -14.0237 -14.0237 -14.0232 -14.0232 -14.0232 -14.0225
   -14.0225 -14.0225 -14.0220 -14.0220 -14.0220 -14.0202 -14.0202 -14.0202
   -14.0197 -14.0197 -14.0197 -14.0196 -14.0196 -14.0196 -14.0070 -14.0009
   -13.9973 -13.9973 -13.9905 -13.9905 -13.9899 -13.9899 -13.9899 -13.9568
   -13.9568 -13.9568 -13.9326 -13.9326 -13.9326 -13.9311 -13.9311 -13.9311
   -13.9266 -13.9266 -13.9138 -13.9108 -13.9108 -13.9108 -13.9105 -13.9105
   -13.9105 -13.9084 -13.9084 -13.9084 -13.9070 -13.9070 -13.9070 -13.8987
   -13.8987 -13.8987 -13.8945 -13.8945 -13.8927 -13.8921 -13.8921 -13.8918
   -13.8886 -13.8886 -13.8886 -13.8853 -13.8853 -13.8853 -13.8785 -13.8785
   -13.8785 -13.8783 -13.8783 -13.8783 -13.8756 -13.8756 -13.8756 -13.8644
   -13.8644 -13.8644 -13.8498 -13.8498 -13.8444 -13.7365 -13.7365 -13.7365
   -13.7073 -13.7073 -13.7045 -13.7045 -13.7045 -13.6995 -13.6930 -13.6930
   -13.6930 -13.6919 -13.6826 -13.6790 -13.6790 -13.6790 -13.6600 -13.6600
   -13.6600 -13.6549 -13.6548 -13.6548 -13.6523 -13.6523 -13.6490 -13.6474
   -13.6474 -13.6474 -13.6453 -13.6453 -13.6453 -13.6439 -13.6439 -13.6439
   -13.6379 -13.6379 -13.6379 -13.6311 -13.6311 -13.6311 -13.6087 -13.6087
   -13.6087 -13.6057 -13.6057 -13.6057 -13.6027 -13.6027 -13.6027 -13.6027
   -13.6027 -13.6025 -13.6025 -13.5961 -13.5952 -13.5952 -13.5952 -13.5949
   -13.5949 -13.5949 -13.5947 -13.5947 -13.5934 -13.5934 -13.5934 -13.5932
   -13.5932 -13.5932 -13.5927 -13.5927 -13.5927 -13.5889 -13.5889 -13.5889
   -13.5859 -13.5848 -13.5848 -13.5836 -13.5836 -13.5836 -13.5794 -13.5794
   -13.5794 -13.5747 -13.5746 -13.5746 -13.5708 -13.5708 -13.5708 -13.5708
   -13.5708 -13.5689 -13.5689 -13.5689 -13.5556 -13.5556 -13.5535 -13.5500
   -13.5500 -13.5500 -13.5466 -13.5466 -13.5466 -13.5459 -13.5459 -13.5459
   -13.5409 -13.5409 -13.5409 -13.5392 -13.5392 -13.5392 -13.5322 -13.4468
   -13.4468 -13.4468 -13.4398 -13.4398 -13.4398 -13.4378 -13.4323 -13.4323
   -13.4323 -13.4221 -13.4221 -13.4221 -13.4173 -13.4173 -13.4173 -13.4159
   -13.4159 -13.4159 -13.4114 -13.4114  13.8958  15.1483  15.1483  15.1597
    15.1597  15.1597  15.2551  15.6662  15.6662  15.7811  15.7873  15.7873
    15.7873  15.7891  15.7891  15.8324  15.8324  15.8324  15.8491  15.8491
    15.8605  15.8605  15.8605  15.8628  15.8628  15.8628  16.0409  16.3739
    16.3839  16.3839  16.3839  16.4125  16.4125  16.5265  16.5265  16.5265
    16.5266  16.5301  16.5301  16.5323  16.5323  16.5323  16.5371  16.5371
    16.5371  16.5384  16.5384  16.5384  16.5496  16.5496  16.5496  16.5876
    16.5876  16.5896  16.5896  16.5896  16.6317  16.6938  16.6938  16.6941
    16.6941  16.6941  16.6952  16.7336  16.7336  16.7336  16.7350  16.7350
    16.7350  16.7379  16.7379  16.7379  16.7437  16.9117  16.9117  16.9397
    16.9397  16.9397  16.9444  16.9521  16.9521  16.9521  16.9714  16.9818
    16.9818  16.9866  16.9970  16.9970  16.9970  17.0115  17.0115  17.0115
    17.0357  17.0428  17.0428  17.1114  17.1114  17.1171  17.1171  17.1171
    17.1202  17.1202  17.1202  17.1216  17.1216  17.1216  17.1270  17.1270
    17.1270  17.1310  17.1464  17.1464  17.1464  17.1816  17.1816  17.2739
    17.2739  17.2739  17.2946  17.3765  17.3765  17.3765  17.3867  17.3867
    17.6977  17.6977  17.6977  17.7014  17.7014  17.7014  17.7310  17.7310
    17.7310  17.7433  17.7433  17.7433  17.7479  17.7479  17.7479  17.7492
    17.7630  17.7680  17.7680  17.7680  17.7681  17.7681  17.7681  17.7931
    17.7931  17.7931  17.8323  17.8323  17.8323  17.8369  17.8369  17.9669
    17.9669  17.9669  17.9732  17.9732  17.9760  17.9760  17.9760  17.9787
    17.9787  17.9787  18.0059  18.0059  18.0059  18.0698  18.0698  18.1260
    18.1342  18.1370  18.1370  18.1370  18.1390  18.1390  18.1390  18.1402
    18.1402  18.1402  18.1448  18.1448  18.1535  18.1535  18.1535  18.1833
    18.1833  18.1833  18.1909  18.1909  18.1909  18.2501  18.2627  18.2627
    18.2627  18.2696  18.2696  18.2696  18.2861  18.2861  18.3059  18.3220
    18.3220  18.3241  18.3241  18.3242  18.3388  18.3388  18.3388  18.3392
    18.3392  18.3392  18.3742  18.3742  18.4009  18.4009  18.4009  18.4336
    18.4594  18.4594  18.4594  18.5066  18.5066  18.5066  18.5180  18.5180
    18.5180  18.5990  18.5990  18.6007  18.6039  18.6039  18.6039  18.6065
    18.6065  18.6065  18.6128  18.6128  18.6128  18.6165  18.6165  18.6165
    18.6177  18.6216  18.6216  18.6219  18.6219  18.6219  18.6386  18.6386
    18.6386  18.6474  18.6495  18.6495  18.6510  18.6510  18.6510  18.6626
    18.6626  18.6626  18.8387  18.8387  19.1155  19.1155  19.1155  19.3864
    19.3864  19.3864  19.3897  19.3897  19.3897  19.3910  19.3910  19.3910
    19.3920  19.3920  19.3920  19.3925  19.3925  19.4081  19.4081  19.4097
    19.4248  19.4311  19.4311  19.4311  19.4872  19.4873  19.4873  19.5440
    19.5440  19.5457  19.5457  19.5457  19.5511  19.5524  19.5524  19.5524
    19.5529  19.5529  19.5529  19.5556  19.5556  19.5556  19.5609  19.5625
    19.5625  19.5625  19.5626  19.5626  19.5626  19.5644  19.5644  19.6190
    19.6190  19.6190  19.6376  19.6376  19.6376  19.6944  19.6944  19.6944
    19.7341  19.7370  19.7370  19.7370  19.7436  19.7436  19.7436  19.7602
    19.7602  19.7602  19.7632  19.7632  19.7632  20.0478  20.0478  20.0478
    20.1428  20.1428  20.3404  20.3404  20.3498  20.3498  20.3498  20.3528
    20.3539  20.3539  20.3615  20.3615  20.3615  20.3618  20.3618  20.3618
    20.3914  20.4387  20.4387  20.4387  20.5054  20.5054  20.5054  20.5060
    20.5060  20.5061  20.5217  20.5217  20.5217  20.5225  20.5225  20.5225
    20.5297  20.5297  20.5297  20.5309  20.5309  20.5309  20.6092  20.6092
    20.6092  21.1432  21.1432  21.1432  21.1993  21.2169  21.2169  21.2169
    21.2868  21.2868  21.4440  21.4440  21.4440  21.4638  21.4638  21.4702
    21.4705  21.4705  21.4705  21.5808  21.5808  21.5808  21.8979  21.8988
    21.8988  21.8988  21.9005  21.9005  21.9028  21.9028  21.9028  21.9188
    21.9188  21.9188  21.9203  21.9203  21.9203  21.9209  21.9209  21.9209
    21.9364  21.9667  21.9667  21.9667  21.9808  21.9808  22.0018  22.0018
    22.0266  22.0692  22.0692  22.0692  22.1759  22.1759  22.1796  22.1796
    22.1796  22.1891  22.1891  22.1891  22.2339  22.2384  22.2384  22.2384
    22.2512  22.2512  22.2512  22.2572  22.2572  22.2572  22.2583  22.3049
    22.3049  22.3556  22.3556  22.3556  22.4184  22.4279  22.4279  22.4279
    22.4281  22.4281  22.4281  22.4282  22.4355  22.4355  22.4355  22.4369
    22.4369  22.4438  22.4438  22.4438  22.4593  22.4593  22.4593  22.5494
    22.5494  22.6295  22.6295  22.6295  22.7335  22.7335  22.7335  22.7345
    22.7345  22.7345  22.7419  22.7419  22.7419  22.7627  22.7627  22.7627
    22.7755  22.7755  22.7972  22.7972  22.7972  22.8014  22.8014  22.8014
    22.8018  22.8018  22.8018  22.8021  22.8021  22.8123  22.8123  22.8124
    22.8124  22.8124  22.8127  22.8127  22.8127  22.8209  22.8209  22.8209
    22.8254  22.8845  22.8845  22.9383  22.9438  22.9438  22.9438  22.9517
    22.9517  22.9517  22.9616  22.9616  22.9616  23.0809  23.0809  23.0905
    23.0905  23.0905  23.1472  23.1549  23.1549  23.1551  23.1551  23.1551
    23.1588  23.2533  23.2533  23.2636  23.2636  23.2637  23.3612  23.3699
    23.3700  23.3702  23.4034  23.4038  23.4059  23.4076  23.4082  23.4094
    23.4147  23.4158  23.4164

     the Fermi energy is    20.8833 ev

!    total energy              =  -17419.63911462 Ry
     Harris-Foulkes estimate   =  -17419.63911462 Ry
     estimated scf accuracy    <       0.00000002 Ry

     The total energy is the sum of the following terms:

     one-electron contribution =   -2689.12723617 Ry
     hartree contribution      =    2385.96206292 Ry
     xc contribution           =   -1988.14749129 Ry
     ewald contribution        =  -15128.32552026 Ry
     smearing contrib. (-TS)   =      -0.00092981 Ry

     convergence has been achieved in  12 iterations

     Forces acting on atoms (cartesian axes, Ry/au):

     atom    1 type  1   force =    -0.01024188   -0.01024188   -0.01024188
     atom    2 type  1   force =     0.00000000    0.00000000   -0.00812695
     atom    3 type  1   force =     0.00150690    0.00150690    0.00276240
     atom    4 type  1   force =     0.00000000    0.00000000    0.00000000
     atom    5 type  1   force =     0.00150690    0.00150690   -0.00276240
     atom    6 type  1   force =     0.00000000    0.00000000    0.00812695
     atom    7 type  1   force =    -0.01024188   -0.01024188    0.01024188
     atom    8 type  1   force =     0.00000000   -0.00812695    0.00000000
     atom    9 type  1   force =     0.00150690    0.00276240    0.00150690
     atom   10 type  1   force =     0.00000000   -0.00280699   -0.00280699
     atom   11 type  1   force =    -0.00069622    0.00051850    0.00051850
     atom   12 type  1   force =     0.00000000   -0.00021256    0.00000000
     atom   13 type  1   force =    -0.00069622    0.00051850   -0.00051850
     atom   14 type  1   force =     0.00000000   -0.00280699    0.00280699
     atom   15 type  1   force =     0.00150690    0.00276240   -0.00150690
     atom   16 type  1   force =     0.00000000    0.00000000    0.00000000
     atom   17 type  1   force =     0.00150690   -0.00276240    0.00150690
     atom   18 type  1   force =     0.00000000    0.00000000   -0.00021256
     atom   19 type  1   force =    -0.00069622   -0.00051850    0.00051850
     atom   20 type  1   force =     0.00000000   -0.00000000    0.00000000
     atom   21 type  1   force =    -0.00069622   -0.00051850   -0.00051850
     atom   22 type  1   force =     0.00000000    0.00000000    0.00021256
     atom   23 type  1   force =     0.00150690   -0.00276240   -0.00150690
     atom   24 type  1   force =    -0.00000000    0.00812695   -0.00000000
     atom   25 type  1   force =    -0.01024188    0.01024188   -0.01024188
     atom   26 type  1   force =    -0.00000000    0.00280699   -0.00280699
     atom   27 type  1   force =     0.00150690   -0.00150690    0.00276240
     atom   28 type  1   force =    -0.00000000    0.00021256    0.00000000
     atom   29 type  1   force =     0.00150690   -0.00150690   -0.00276240
     atom   30 type  1   force =     0.00000000    0.00280699    0.00280699
     atom   31 type  1   force =    -0.01024188    0.01024188    0.01024188
     atom   32 type  1   force =    -0.00812695    0.00000000    0.00000000
     atom   33 type  1   force =     0.00276240    0.00150690    0.00150690
     atom   34 type  1   force =    -0.00280699   -0.00000000   -0.00280699
     atom   35 type  1   force =     0.00051850   -0.00069622    0.00051850
     atom   36 type  1   force =    -0.00021256   -0.00000000    0.00000000
     atom   37 type  1   force =     0.00051850   -0.00069622   -0.00051850
     atom   38 type  1   force =    -0.00280699    0.00000000    0.00280699
     atom   39 type  1   force =     0.00276240    0.00150690   -0.00150690
     atom   40 type  1   force =    -0.00280699   -0.00280699   -0.00000000
     atom   41 type  1   force =     0.00051850    0.00051850   -0.00069622
     atom   42 type  1   force =    -0.00372049   -0.00372049   -0.00372049
     atom   43 type  1   force =    -0.00135894   -0.00135894   -0.00135894
     atom   44 type  1   force =    -0.00161821   -0.00161821    0.00000000
     atom   45 type  1   force =    -0.00135894   -0.00135894    0.00135894
     atom   46 type  1   force =    -0.00372049   -0.00372049    0.00372049
     atom   47 type  1   force =     0.00051850    0.00051850    0.00069622
     atom   48 type  1   force =    -0.00021256   -0.00000000    0.00000000
     atom   49 type  1   force =     0.00051850   -0.00051850   -0.00069622
     atom   50 type  1   force =    -0.00161821    0.00000000   -0.00161821
     atom   51 type  1   force =    -0.00135894    0.00135894   -0.00135894
     atom   52 type  1   force =     0.00276994    0.00000000    0.00000000
     atom   53 type  1   force =    -0.00135894    0.00135894    0.00135894
     atom   54 type  1   force =    -0.00161821    0.00000000    0.00161821
     atom   55 type  1   force =     0.00051850   -0.00051850    0.00069622
     atom   56 type  1   force =    -0.00280699    0.00280699    0.00000000
     atom   57 type  1   force =     0.00276240   -0.00150690    0.00150690
     atom   58 type  1   force =    -0.00372049    0.00372049   -0.00372049
     atom   59 type  1   force =     0.00051850    0.00069622    0.00051850
     atom   60 type  1   force =    -0.00161821    0.00161821    0.00000000
     atom   61 type  1   force =     0.00051850    0.00069622   -0.00051850
     atom   62 type  1   force =    -0.00372049    0.00372049    0.00372049
     atom   63 type  1   force =     0.00276240   -0.00150690   -0.00150690
     atom   64 type  1   force =     0.00000000    0.00000000    0.00000000
     atom   65 type  1   force =    -0.00276240    0.00150690    0.00150690
     atom   66 type  1   force =     0.00000000    0.00000000   -0.00021256
     atom   67 type  1   force =    -0.00051850   -0.00069622    0.00051850
     atom   68 type  1   force =     0.00000000   -0.00000000    0.00000000
     atom   69 type  1   force =    -0.00051850   -0.00069622   -0.00051850
     atom   70 type  1   force =     0.00000000    0.00000000    0.00021256
     atom   71 type  1   force =    -0.00276240    0.00150690   -0.00150690
     atom   72 type  1   force =     0.00000000   -0.00021256    0.00000000
     atom   73 type  1   force =    -0.00051850    0.00051850   -0.00069622
     atom   74 type  1   force =     0.00000000   -0.00161821   -0.00161821
     atom   75 type  1   force =     0.00135894   -0.00135894   -0.00135894
     atom   76 type  1   force =     0.00000000    0.00276994    0.00000000
     atom   77 type  1   force =     0.00135894   -0.00135894    0.00135894
     atom   78 type  1   force =     0.00000000   -0.00161821    0.00161821
     atom   79 type  1   force =    -0.00051850    0.00051850    0.00069622
     atom   80 type  1   force =     0.00000000    0.00000000    0.00000000
     atom   81 type  1   force =    -0.00051850   -0.00051850   -0.00069622
     atom   82 type  1   force =     0.00000000    0.00000000    0.00276994
     atom   83 type  1   force =     0.00135894    0.00135894   -0.00135894
     atom   84 type  1   force =     0.00000000    0.00000000   -0.00000000
     atom   85 type  1   force =     0.00135894    0.00135894    0.00135894
     atom   86 type  1   force =     0.00000000    0.00000000   -0.00276994
     atom   87 type  1   force =    -0.00051850   -0.00051850    0.00069622
     atom   88 type  1   force =     0.00000000    0.00021256   -0.00000000
     atom   89 type  1   force =    -0.00276240   -0.00150690    0.00150690
     atom   90 type  1   force =    -0.00000000    0.00161821   -0.00161821
     atom   91 type  1   force =    -0.00051850    0.00069622    0.00051850
     atom   92 type  1   force =     0.00000000   -0.00276994    0.00000000
     atom   93 type  1   force =    -0.00051850    0.00069622   -0.00051850
     atom   94 type  1   force =    -0.00000000    0.00161821    0.00161821
     atom   95 type  1   force =    -0.00276240   -0.00150690   -0.00150690
     atom   96 type  1   force =     0.00812695    0.00000000    0.00000000
     atom   97 type  1   force =     0.01024188   -0.01024188   -0.01024188
     atom   98 type  1   force =     0.00280699    0.00000000   -0.00280699
     atom   99 type  1   force =    -0.00150690    0.00150690    0.00276240
     atom  100 type  1   force =     0.00021256   -0.00000000    0.00000000
     atom  101 type  1   force =    -0.00150690    0.00150690   -0.00276240
     atom  102 type  1   force =     0.00280699    0.00000000    0.00280699
     atom  103 type  1   force =     0.01024188   -0.01024188    0.01024188
     atom  104 type  1   force =     0.00280699   -0.00280699    0.00000000
     atom  105 type  1   force =    -0.00150690    0.00276240    0.00150690
     atom  106 type  1   force =     0.00372049   -0.00372049   -0.00372049
     atom  107 type  1   force =     0.00069622    0.00051850    0.00051850
     atom  108 type  1   force =     0.00161821   -0.00161821   -0.00000000
     atom  109 type  1   force =     0.00069622    0.00051850   -0.00051850
     atom  110 type  1   force =     0.00372049   -0.00372049    0.00372049
     atom  111 type  1   force =    -0.00150690    0.00276240   -0.00150690
     atom  112 type  1   force =     0.00021256    0.00000000    0.00000000
     atom  113 type  1   force =    -0.00150690   -0.00276240    0.00150690
     atom  114 type  1   force =     0.00161821   -0.00000000   -0.00161821
     atom  115 type  1   force =     0.00069622   -0.00051850    0.00051850
     atom  116 type  1   force =    -0.00276994    0.00000000    0.00000000
     atom  117 type  1   force =     0.00069622   -0.00051850   -0.00051850
     atom  118 type  1   force =     0.00161821    0.00000000    0.00161821
     atom  119 type  1   force =    -0.00150690   -0.00276240   -0.00150690
     atom  120 type  1   force =     0.00280699    0.00280699    0.00000000
     atom  121 type  1   force =     0.01024188    0.01024188   -0.01024188
     atom  122 type  1   force =     0.00372049    0.00372049   -0.00372049
     atom  123 type  1   force =    -0.00150690   -0.00150690    0.00276240
     atom  124 type  1   force =     0.00161821    0.00161821    0.00000000
     atom  125 type  1   force =    -0.00150690   -0.00150690   -0.00276240
     atom  126 type  1   force =     0.00372049    0.00372049    0.00372049
     atom  127 type  1   force =     0.01024188    0.01024188    0.01024188

     Total force =     0.062494     Total SCF correction =     0.000366


     Computing stress (Cartesian axis) and pressure

          total   stress  (Ry/bohr**3)                   (kbar)     P=       13.41
   0.00009116   0.00000000   0.00000000           13.41        0.00        0.00
   0.00000000   0.00009116   0.00000000            0.00       13.41        0.00
   0.00000000   0.00000000   0.00009116            0.00        0.00       13.41

 
     init_run     :      5.52s CPU      5.83s WALL (       1 calls)
     electrons    :    534.02s CPU    544.34s WALL (       1 calls)
     forces       :      2.66s CPU      2.73s WALL (       1 calls)
     stress       :     53.98s CPU     54.27s WALL (       1 calls)

     Called by init_run:
     wfcinit      :      5.09s CPU      5.37s WALL (       1 calls)
     potinit      :      0.06s CPU      0.07s WALL (       1 calls)
     hinit0       :      0.12s CPU      0.15s WALL (       1 calls)

     Called by electrons:
     c_bands      :    519.89s CPU    529.88s WALL (      13 calls)
     sum_band     :     13.40s CPU     13.67s WALL (      13 calls)
     v_of_rho     :      0.60s CPU      0.64s WALL (      13 calls)
     mix_rho      :      0.11s CPU      0.13s WALL (      13 calls)

     Called by c_bands:
     init_us_2    :      0.86s CPU      0.95s WALL (      27 calls)
     regterg      :    515.95s CPU    525.74s WALL (      13 calls)

     Called by sum_band:

     Called by *egterg:
     h_psi        :    105.80s CPU    107.32s WALL (      90 calls)
     g_psi        :      0.19s CPU      0.19s WALL (      76 calls)
     rdiaghg      :    337.60s CPU    339.59s WALL (      88 calls)

     Called by h_psi:
     h_psi:calbec :     22.71s CPU     23.00s WALL (      90 calls)
     vloc_psi     :     60.78s CPU     61.74s WALL (      90 calls)
     add_vuspsi   :     21.70s CPU     21.91s WALL (      90 calls)

     General routines
     calbec       :     25.68s CPU     25.98s WALL (      95 calls)
     fft          :      0.47s CPU      0.50s WALL (     111 calls)
     ffts         :      0.04s CPU      0.04s WALL (      13 calls)
     fftw         :     59.77s CPU     60.71s WALL (   44738 calls)
 
     Parallel routines
     fft_scatt_xy :      8.99s CPU      9.13s WALL (   44862 calls)
     fft_scatt_yz :     22.85s CPU     23.34s WALL (   44862 calls)
 
     PWSCF        :   9m56.33s CPU  10m 7.76s WALL

 
   This run was terminated on:  18:20:19   7May2021            

=------------------------------------------------------------------------------=
   JOB DONE.
=------------------------------------------------------------------------------=
