
     Program PWSCF v.7.0 starts on 11Mar2022 at 14:34: 9 

     This program is part of the open-source Quantum ESPRESSO suite
     for quantum simulation of materials; please cite
         "P. Giannozzi et al., J. Phys.:Condens. Matter 21 395502 (2009);
         "P. Giannozzi et al., J. Phys.:Condens. Matter 29 465901 (2017);
         "P. Giannozzi et al., J. Chem. Phys. 152 154105 (2020);
          URL http://www.quantum-espresso.org", 
     in publications or presentations arising from this work. More details at
     http://www.quantum-espresso.org/quote

     Parallel version (MPI & OpenMP), running on     512 processor cores
     Number of MPI processes:               128
     Threads/MPI process:                     4

     MPI processes distributed on     8 nodes
     R & G space division:  proc/nbgrp/npool/nimage =     128
     91840 MiB available memory on the printing compute node when the environment starts
 
     Reading input from LLZO_ecut85Ry.vc-relax.in

     Current dimensions of program PWSCF are:
     Max number of different atomic species (ntypx) = 10
     Max number of k-points (npk) =  40000
     Max angular momentum in pseudopotentials (lmaxx) =  4

     gamma-point specific algorithms are used
     Found identity + (  0.5000  0.5000  0.5000) symmetry
     This is a supercell, fractional translations are disabled
     Message from routine setup:
     using ibrav=0 with symmetry is DISCOURAGED, use correct ibrav instead

     Subspace diagonalization in iterative solution of the eigenvalue problem:
     one sub-group per band group will be used
     scalapack distributed-memory algorithm (size of sub-group: 11* 11 procs)

 
     Parallelization info
     --------------------
     sticks:   dense  smooth     PW     G-vecs:    dense   smooth      PW
     Min         128     128     32                12152    12152    1516
     Max         130     130     34                12182    12182    1530
     Sum       16613   16613   4165              1557881  1557881  194819
 
     Using Slab Decomposition
 


     bravais-lattice index     =            0
     lattice parameter (alat)  =      24.7911  a.u.
     unit-cell volume          =   14715.3804 (a.u.)^3
     number of atoms/cell      =          192
     number of atomic types    =            4
     number of electrons       =      1200.00
     number of Kohn-Sham states=          720
     kinetic-energy cutoff     =      85.0000  Ry
     charge density cutoff     =     340.0000  Ry
     scf convergence threshold =      1.0E-06
     mixing beta               =       0.2000
     number of iterations used =            8  plain     mixing
     energy convergence thresh.=      1.0E-04
     force convergence thresh. =      1.0E-03
     press convergence thresh. =      5.0E-01
     Exchange-correlation= PBE
                           (   1   4   3   4   0   0   0)
     nstep                     =           50


     celldm(1)=  24.791128  celldm(2)=   0.000000  celldm(3)=   0.000000
     celldm(4)=   0.000000  celldm(5)=   0.000000  celldm(6)=   0.000000

     crystal axes: (cart. coord. in units of alat)
               a(1) = (   1.000000   0.000000   0.000000 )  
               a(2) = (   0.000000   1.000000   0.000000 )  
               a(3) = (   0.000000   0.000000   0.965790 )  

     reciprocal axes: (cart. coord. in units 2 pi/alat)
               b(1) = (  1.000000  0.000000  0.000000 )  
               b(2) = (  0.000000  1.000000  0.000000 )  
               b(3) = (  0.000000  0.000000  1.035422 )  


     PseudoPot. # 1 for Li read from file:
     ./Li.upf
     MD5 check sum: dbcf0ea72988e720c8c712b432d51b0d
     Pseudo is Norm-conserving, Zval =  3.0
     Generated using ONCVPSP code by D. R. Hamann
     Using radial grid of 1944 points,  4 beta functions with: 
                l(1) =   0
                l(2) =   0
                l(3) =   1
                l(4) =   1

     PseudoPot. # 2 for O  read from file:
     ./O.upf
     MD5 check sum: 3e3f909f7470e8921608ab6b1f57bbae
     Pseudo is Norm-conserving + core correction, Zval =  6.0
     Generated using ONCVPSP code by D. R. Hamann
     Using radial grid of  936 points,  5 beta functions with: 
                l(1) =   0
                l(2) =   0
                l(3) =   1
                l(4) =   1
                l(5) =   2

     PseudoPot. # 3 for La read from file:
     ./La.upf
     MD5 check sum: cd9f961d044315b77468ddb00b57bfe4
     Pseudo is Norm-conserving + core correction, Zval = 11.0
     Generated using ONCVPSP code by D. R. Hamann
     Using radial grid of 1812 points,  8 beta functions with: 
                l(1) =   0
                l(2) =   0
                l(3) =   1
                l(4) =   1
                l(5) =   2
                l(6) =   2
                l(7) =   3
                l(8) =   3

     PseudoPot. # 4 for Zr read from file:
     ./Zr.upf
     MD5 check sum: 8ea2969ae37cb4187a0232e4a563b421
     Pseudo is Norm-conserving + core correction, Zval = 12.0
     Generated using ONCVPSP code by D. R. Hamann
     Using radial grid of 1622 points,  6 beta functions with: 
                l(1) =   0
                l(2) =   0
                l(3) =   1
                l(4) =   1
                l(5) =   2
                l(6) =   2

     atomic species   valence    mass     pseudopotential
        Li             3.00     9.00000     Li( 1.00)
        O              6.00    16.00000     O ( 1.00)
        La            11.00   138.00000     La( 1.00)
        Zr            12.00    91.24000     Zr( 1.00)

      2 Sym. Ops., with inversion, found



   Cartesian axes

     site n.     atom                  positions (alat units)
         1           La  tau(   1) = (   0.5000000   0.7500000   0.6036186  )
         2           La  tau(   2) = (   0.5000000   0.7500000   0.1207237  )
         3           La  tau(   3) = (   0.0000000   0.7500000   0.8450661  )
         4           La  tau(   4) = (   0.0000000   0.7500000   0.3621712  )
         5           La  tau(   5) = (   0.5000000   0.2500000   0.3621712  )
         6           La  tau(   6) = (   0.5000000   0.2500000   0.8450661  )
         7           La  tau(   7) = (   0.0000000   0.2500000   0.1207237  )
         8           La  tau(   8) = (   0.0000000   0.2500000   0.6036186  )
         9           La  tau(   9) = (   0.2500000   0.8773000   0.4828949  )
        10           La  tau(  10) = (   0.7500000   0.8773000   0.0000000  )
        11           La  tau(  11) = (   0.1273000   0.5000000   0.7243424  )
        12           La  tau(  12) = (   0.8727000   0.5000000   0.2414475  )
        13           La  tau(  13) = (   0.7500000   0.1227000   0.4828949  )
        14           La  tau(  14) = (   0.2500000   0.1227000   0.0000000  )
        15           La  tau(  15) = (   0.2500000   0.6227000   0.0000000  )
        16           La  tau(  16) = (   0.7500000   0.6227000   0.4828949  )
        17           La  tau(  17) = (   0.1273000   0.0000000   0.2414475  )
        18           La  tau(  18) = (   0.8727000   0.0000000   0.7243424  )
        19           La  tau(  19) = (   0.7500000   0.3773000   0.0000000  )
        20           La  tau(  20) = (   0.2500000   0.3773000   0.4828949  )
        21           La  tau(  21) = (   0.6273000   0.0000000   0.2414475  )
        22           La  tau(  22) = (   0.3727000   0.0000000   0.7243424  )
        23           La  tau(  23) = (   0.6273000   0.5000000   0.7243424  )
        24           La  tau(  24) = (   0.3727000   0.5000000   0.2414475  )
        25           Zr  tau(  25) = (   0.2500000   0.7500000   0.7243424  )
        26           Zr  tau(  26) = (   0.7500000   0.7500000   0.2414475  )
        27           Zr  tau(  27) = (   0.0000000   0.5000000   0.0000000  )
        28           Zr  tau(  28) = (   0.0000000   0.5000000   0.4828949  )
        29           Zr  tau(  29) = (   0.7500000   0.2500000   0.2414475  )
        30           Zr  tau(  30) = (   0.2500000   0.2500000   0.7243424  )
        31           Zr  tau(  31) = (   0.2500000   0.7500000   0.2414475  )
        32           Zr  tau(  32) = (   0.7500000   0.7500000   0.7243424  )
        33           Zr  tau(  33) = (   0.0000000   0.0000000   0.4828949  )
        34           Zr  tau(  34) = (   0.0000000   0.0000000   0.0000000  )
        35           Zr  tau(  35) = (   0.7500000   0.2500000   0.7243424  )
        36           Zr  tau(  36) = (   0.2500000   0.2500000   0.2414475  )
        37           Zr  tau(  37) = (   0.5000000   0.0000000   0.4828949  )
        38           Zr  tau(  38) = (   0.5000000   0.0000000   0.0000000  )
        39           Zr  tau(  39) = (   0.5000000   0.5000000   0.0000000  )
        40           Zr  tau(  40) = (   0.5000000   0.5000000   0.4828949  )
        41           Li  tau(  41) = (   0.5000000   0.7500000   0.3621712  )
        42           Li  tau(  42) = (   0.5000000   0.7500000   0.8450661  )
        43           Li  tau(  43) = (   0.0000000   0.7500000   0.6036186  )
        44           Li  tau(  44) = (   0.0000000   0.7500000   0.1207237  )
        45           Li  tau(  45) = (   0.5000000   0.2500000   0.6036186  )
        46           Li  tau(  46) = (   0.5000000   0.2500000   0.1207237  )
        47           Li  tau(  47) = (   0.0000000   0.2500000   0.3621712  )
        48           Li  tau(  48) = (   0.0000000   0.2500000   0.8450661  )
        49           Li  tau(  49) = (   0.6774000   0.9274000   0.6036186  )
        50           Li  tau(  50) = (   0.3226000   0.9274000   0.1207237  )
        51           Li  tau(  51) = (   0.1774000   0.9274000   0.8450661  )
        52           Li  tau(  52) = (   0.8226000   0.9274000   0.3621712  )
        53           Li  tau(  53) = (   0.3226000   0.0726000   0.3621712  )
        54           Li  tau(  54) = (   0.6774000   0.0726000   0.8450661  )
        55           Li  tau(  55) = (   0.8226000   0.0726000   0.1207237  )
        56           Li  tau(  56) = (   0.1774000   0.0726000   0.6036186  )
        57           Li  tau(  57) = (   0.6774000   0.5726000   0.1207237  )
        58           Li  tau(  58) = (   0.3226000   0.5726000   0.6036186  )
        59           Li  tau(  59) = (   0.1774000   0.5726000   0.3621712  )
        60           Li  tau(  60) = (   0.8226000   0.5726000   0.8450661  )
        61           Li  tau(  61) = (   0.3226000   0.4274000   0.8450661  )
        62           Li  tau(  62) = (   0.6774000   0.4274000   0.3621712  )
        63           Li  tau(  63) = (   0.8226000   0.4274000   0.6036186  )
        64           Li  tau(  64) = (   0.1774000   0.4274000   0.1207237  )
        65           Li  tau(  65) = (   0.3370000   0.8300000   0.9127680  )
        66           Li  tau(  66) = (   0.6630000   0.8300000   0.4298730  )
        67           Li  tau(  67) = (   0.0800000   0.5870000   0.1884256  )
        68           Li  tau(  68) = (   0.9200000   0.5870000   0.6713205  )
        69           Li  tau(  69) = (   0.6630000   0.1700000   0.0530219  )
        70           Li  tau(  70) = (   0.3370000   0.1700000   0.5359168  )
        71           Li  tau(  71) = (   0.9200000   0.4130000   0.7773642  )
        72           Li  tau(  72) = (   0.0800000   0.4130000   0.2944693  )
        73           Li  tau(  73) = (   0.3370000   0.6700000   0.4298730  )
        74           Li  tau(  74) = (   0.6630000   0.6700000   0.9127680  )
        75           Li  tau(  75) = (   0.0800000   0.9130000   0.6713205  )
        76           Li  tau(  76) = (   0.9200000   0.9130000   0.1884256  )
        77           Li  tau(  77) = (   0.6630000   0.3300000   0.5359168  )
        78           Li  tau(  78) = (   0.3370000   0.3300000   0.0530219  )
        79           Li  tau(  79) = (   0.9200000   0.0870000   0.2944693  )
        80           Li  tau(  80) = (   0.0800000   0.0870000   0.7773642  )
        81           Li  tau(  81) = (   0.8370000   0.3300000   0.4298730  )
        82           Li  tau(  82) = (   0.1630000   0.3300000   0.9127680  )
        83           Li  tau(  83) = (   0.5800000   0.0870000   0.6713205  )
        84           Li  tau(  84) = (   0.4200000   0.0870000   0.1884256  )
        85           Li  tau(  85) = (   0.1630000   0.6700000   0.5359168  )
        86           Li  tau(  86) = (   0.8370000   0.6700000   0.0530219  )
        87           Li  tau(  87) = (   0.4200000   0.9130000   0.2944693  )
        88           Li  tau(  88) = (   0.5800000   0.9130000   0.7773642  )
        89           Li  tau(  89) = (   0.8370000   0.1700000   0.9127680  )
        90           Li  tau(  90) = (   0.1630000   0.1700000   0.4298730  )
        91           Li  tau(  91) = (   0.5800000   0.4130000   0.1884256  )
        92           Li  tau(  92) = (   0.4200000   0.4130000   0.6713205  )
        93           Li  tau(  93) = (   0.1630000   0.8300000   0.0530219  )
        94           Li  tau(  94) = (   0.8370000   0.8300000   0.5359168  )
        95           Li  tau(  95) = (   0.4200000   0.5870000   0.7773642  )
        96           Li  tau(  96) = (   0.5800000   0.5870000   0.2944693  )
        97           O   tau(  97) = (   0.3051000   0.7160000   0.5778320  )
        98           O   tau(  98) = (   0.6949000   0.7160000   0.0949371  )
        99           O   tau(  99) = (   0.9660000   0.5551000   0.8192795  )
       100           O   tau( 100) = (   0.0340000   0.5551000   0.3363846  )
       101           O   tau( 101) = (   0.6949000   0.2840000   0.3879578  )
       102           O   tau( 102) = (   0.3051000   0.2840000   0.8708527  )
       103           O   tau( 103) = (   0.0340000   0.4449000   0.1465103  )
       104           O   tau( 104) = (   0.9660000   0.4449000   0.6294052  )
       105           O   tau( 105) = (   0.3051000   0.7840000   0.0949371  )
       106           O   tau( 106) = (   0.6949000   0.7840000   0.5778320  )
       107           O   tau( 107) = (   0.9660000   0.9449000   0.3363846  )
       108           O   tau( 108) = (   0.0340000   0.9449000   0.8192795  )
       109           O   tau( 109) = (   0.6949000   0.2160000   0.8708527  )
       110           O   tau( 110) = (   0.3051000   0.2160000   0.3879578  )
       111           O   tau( 111) = (   0.0340000   0.0551000   0.6294052  )
       112           O   tau( 112) = (   0.9660000   0.0551000   0.1465103  )
       113           O   tau( 113) = (   0.8051000   0.2160000   0.0949371  )
       114           O   tau( 114) = (   0.1949000   0.2160000   0.5778320  )
       115           O   tau( 115) = (   0.4660000   0.0551000   0.3363846  )
       116           O   tau( 116) = (   0.5340000   0.0551000   0.8192795  )
       117           O   tau( 117) = (   0.1949000   0.7840000   0.8708527  )
       118           O   tau( 118) = (   0.8051000   0.7840000   0.3879578  )
       119           O   tau( 119) = (   0.5340000   0.9449000   0.6294052  )
       120           O   tau( 120) = (   0.4660000   0.9449000   0.1465103  )
       121           O   tau( 121) = (   0.8051000   0.2840000   0.5778320  )
       122           O   tau( 122) = (   0.1949000   0.2840000   0.0949371  )
       123           O   tau( 123) = (   0.4660000   0.4449000   0.8192795  )
       124           O   tau( 124) = (   0.5340000   0.4449000   0.3363846  )
       125           O   tau( 125) = (   0.1949000   0.7160000   0.3879578  )
       126           O   tau( 126) = (   0.8051000   0.7160000   0.8708527  )
       127           O   tau( 127) = (   0.5340000   0.5551000   0.1465103  )
       128           O   tau( 128) = (   0.4660000   0.5551000   0.6294052  )
       129           O   tau( 129) = (   0.1019000   0.8043000   0.2091901  )
       130           O   tau( 130) = (   0.8981000   0.8043000   0.6920850  )
       131           O   tau( 131) = (   0.0543000   0.3519000   0.4506375  )
       132           O   tau( 132) = (   0.9457000   0.3519000   0.9335324  )
       133           O   tau( 133) = (   0.8981000   0.1957000   0.7565997  )
       134           O   tau( 134) = (   0.1019000   0.1957000   0.2737048  )
       135           O   tau( 135) = (   0.9457000   0.6481000   0.5151523  )
       136           O   tau( 136) = (   0.0543000   0.6481000   0.0322574  )
       137           O   tau( 137) = (   0.1019000   0.6957000   0.6920850  )
       138           O   tau( 138) = (   0.8981000   0.6957000   0.2091901  )
       139           O   tau( 139) = (   0.0543000   0.1481000   0.9335324  )
       140           O   tau( 140) = (   0.9457000   0.1481000   0.4506375  )
       141           O   tau( 141) = (   0.8981000   0.3043000   0.2737048  )
       142           O   tau( 142) = (   0.1019000   0.3043000   0.7565997  )
       143           O   tau( 143) = (   0.9457000   0.8519000   0.0322574  )
       144           O   tau( 144) = (   0.0543000   0.8519000   0.5151523  )
       145           O   tau( 145) = (   0.6019000   0.3043000   0.6920850  )
       146           O   tau( 146) = (   0.3981000   0.3043000   0.2091901  )
       147           O   tau( 147) = (   0.5543000   0.8519000   0.9335324  )
       148           O   tau( 148) = (   0.4457000   0.8519000   0.4506375  )
       149           O   tau( 149) = (   0.3981000   0.6957000   0.2737048  )
       150           O   tau( 150) = (   0.6019000   0.6957000   0.7565997  )
       151           O   tau( 151) = (   0.4457000   0.1481000   0.0322574  )
       152           O   tau( 152) = (   0.5543000   0.1481000   0.5151523  )
       153           O   tau( 153) = (   0.6019000   0.1957000   0.2091901  )
       154           O   tau( 154) = (   0.3981000   0.1957000   0.6920850  )
       155           O   tau( 155) = (   0.5543000   0.6481000   0.4506375  )
       156           O   tau( 156) = (   0.4457000   0.6481000   0.9335324  )
       157           O   tau( 157) = (   0.3981000   0.8043000   0.7565997  )
       158           O   tau( 158) = (   0.6019000   0.8043000   0.2737048  )
       159           O   tau( 159) = (   0.4457000   0.3519000   0.5151523  )
       160           O   tau( 160) = (   0.5543000   0.3519000   0.0322574  )
       161           O   tau( 161) = (   0.2781000   0.8991000   0.2932138  )
       162           O   tau( 162) = (   0.7219000   0.8991000   0.7761087  )
       163           O   tau( 163) = (   0.1491000   0.5281000   0.5346612  )
       164           O   tau( 164) = (   0.8509000   0.5281000   0.0517663  )
       165           O   tau( 165) = (   0.7219000   0.1009000   0.6725760  )
       166           O   tau( 166) = (   0.2781000   0.1009000   0.1896811  )
       167           O   tau( 167) = (   0.8509000   0.4719000   0.4311286  )
       168           O   tau( 168) = (   0.1491000   0.4719000   0.9140235  )
       169           O   tau( 169) = (   0.2781000   0.6009000   0.7761087  )
       170           O   tau( 170) = (   0.7219000   0.6009000   0.2932138  )
       171           O   tau( 171) = (   0.1491000   0.9719000   0.0517663  )
       172           O   tau( 172) = (   0.8509000   0.9719000   0.5346612  )
       173           O   tau( 173) = (   0.7219000   0.3991000   0.1896811  )
       174           O   tau( 174) = (   0.2781000   0.3991000   0.6725760  )
       175           O   tau( 175) = (   0.8509000   0.0281000   0.9140235  )
       176           O   tau( 176) = (   0.1491000   0.0281000   0.4311286  )
       177           O   tau( 177) = (   0.7781000   0.3991000   0.7761087  )
       178           O   tau( 178) = (   0.2219000   0.3991000   0.2932138  )
       179           O   tau( 179) = (   0.6491000   0.0281000   0.0517663  )
       180           O   tau( 180) = (   0.3509000   0.0281000   0.5346612  )
       181           O   tau( 181) = (   0.2219000   0.6009000   0.1896811  )
       182           O   tau( 182) = (   0.7781000   0.6009000   0.6725760  )
       183           O   tau( 183) = (   0.3509000   0.9719000   0.9140235  )
       184           O   tau( 184) = (   0.6491000   0.9719000   0.4311286  )
       185           O   tau( 185) = (   0.7781000   0.1009000   0.2932138  )
       186           O   tau( 186) = (   0.2219000   0.1009000   0.7761087  )
       187           O   tau( 187) = (   0.6491000   0.4719000   0.5346612  )
       188           O   tau( 188) = (   0.3509000   0.4719000   0.0517663  )
       189           O   tau( 189) = (   0.2219000   0.8991000   0.6725760  )
       190           O   tau( 190) = (   0.7781000   0.8991000   0.1896811  )
       191           O   tau( 191) = (   0.3509000   0.5281000   0.4311286  )
       192           O   tau( 192) = (   0.6491000   0.5281000   0.9140235  )

     number of k points=     1  Fermi-Dirac smearing, width (Ry)=  0.0032
                       cart. coord. in units 2pi/alat
        k(    1) = (   0.0000000   0.0000000   0.0000000), wk =   2.0000000

     Dense  grid:   778941 G-vectors     FFT dimensions: ( 150, 150, 144)

     Estimated max dynamical RAM per process >     123.76 MB

     Estimated total dynamical RAM >      15.47 GB

     Initial potential from superposition of free atoms

     starting charge    1199.4929, renormalised to    1200.0000
     Starting wfcs are  896 randomized atomic wfcs

     total cpu time spent up to now is        4.9 secs

     Self-consistent Calculation

     iteration #  1     ecut=    85.00 Ry     beta= 0.20
     Davidson diagonalization with overlap
     ethr =  1.00E-02,  avg # of iterations =  3.0

     total cpu time spent up to now is       11.3 secs

     total energy              =   -7308.08015213 Ry
     estimated scf accuracy    <      51.14790603 Ry

     iteration #  2     ecut=    85.00 Ry     beta= 0.20
     Davidson diagonalization with overlap
     ethr =  4.26E-03,  avg # of iterations =  2.0

     total cpu time spent up to now is       17.2 secs

     total energy              =   -7308.14090199 Ry
     estimated scf accuracy    <       9.36433420 Ry

     iteration #  3     ecut=    85.00 Ry     beta= 0.20
     Davidson diagonalization with overlap
     c_bands:  5 eigenvalues not converged
     ethr =  7.80E-04,  avg # of iterations = 20.0

     total cpu time spent up to now is       33.8 secs

     total energy              =   -7310.56043170 Ry
     estimated scf accuracy    <       1.20001359 Ry

     iteration #  4     ecut=    85.00 Ry     beta= 0.20
     Davidson diagonalization with overlap
     ethr =  1.00E-04,  avg # of iterations = 26.0

     total cpu time spent up to now is       61.5 secs

     total energy              =   -7311.14792754 Ry
     estimated scf accuracy    <       0.57241314 Ry

     iteration #  5     ecut=    85.00 Ry     beta= 0.20
     Davidson diagonalization with overlap
     ethr =  4.77E-05,  avg # of iterations =  2.0

     total cpu time spent up to now is       66.5 secs

     total energy              =   -7311.14524763 Ry
     estimated scf accuracy    <       0.15178920 Ry

     iteration #  6     ecut=    85.00 Ry     beta= 0.20
     Davidson diagonalization with overlap
     ethr =  1.26E-05,  avg # of iterations = 22.0

     total cpu time spent up to now is       89.5 secs

     total energy              =   -7311.17574542 Ry
     estimated scf accuracy    <       0.00910288 Ry

     iteration #  7     ecut=    85.00 Ry     beta= 0.20
     Davidson diagonalization with overlap
     ethr =  7.59E-07,  avg # of iterations = 82.0

     total cpu time spent up to now is      149.5 secs

     total energy              =   -7311.17877565 Ry
     estimated scf accuracy    <       0.00163285 Ry

     iteration #  8     ecut=    85.00 Ry     beta= 0.20
     Davidson diagonalization with overlap
     ethr =  1.36E-07,  avg # of iterations =  2.0

     total cpu time spent up to now is      155.2 secs

     total energy              =   -7311.17906327 Ry
     estimated scf accuracy    <       0.00028879 Ry

     iteration #  9     ecut=    85.00 Ry     beta= 0.20
     Davidson diagonalization with overlap
     ethr =  2.41E-08,  avg # of iterations =  4.0

     total cpu time spent up to now is      163.3 secs

     total energy              =   -7311.17914508 Ry
     estimated scf accuracy    <       0.00010766 Ry

     iteration # 10     ecut=    85.00 Ry     beta= 0.20
     Davidson diagonalization with overlap
     ethr =  8.97E-09,  avg # of iterations =  3.0

     total cpu time spent up to now is      170.0 secs

     total energy              =   -7311.17914846 Ry
     estimated scf accuracy    <       0.00006714 Ry

     iteration # 11     ecut=    85.00 Ry     beta= 0.20
     Davidson diagonalization with overlap
     ethr =  5.60E-09,  avg # of iterations =  4.0

     total cpu time spent up to now is      176.9 secs

     total energy              =   -7311.17916207 Ry
     estimated scf accuracy    <       0.00000198 Ry

     iteration # 12     ecut=    85.00 Ry     beta= 0.20
     Davidson diagonalization with overlap
     ethr =  1.65E-10,  avg # of iterations =  7.0

     total cpu time spent up to now is      188.4 secs

     total energy              =   -7311.17916280 Ry
     estimated scf accuracy    <       0.00000654 Ry

     iteration # 13     ecut=    85.00 Ry     beta= 0.20
     Davidson diagonalization with overlap
     ethr =  1.65E-10,  avg # of iterations =  6.0

     total cpu time spent up to now is      196.8 secs

     End of self-consistent calculation

          k = 0.0000 0.0000 0.0000 ( 97410 PWs)   bands (ev):

   -38.5952 -38.5951 -38.5951 -38.5951 -38.5951 -38.5951 -38.5951 -38.5951
   -38.5951 -38.5951 -38.5951 -38.5951 -38.5951 -38.5951 -38.5951 -38.5950
   -35.1730 -35.1729 -35.1729 -35.1728 -35.1711 -35.1711 -35.1710 -35.1710
   -35.1710 -35.1710 -35.1709 -35.1709 -35.1692 -35.1691 -35.1691 -35.1690
   -34.9565 -34.9558 -34.9558 -34.9555 -34.9546 -34.9545 -34.9544 -34.9544
   -34.9543 -34.9542 -34.9541 -34.9540 -34.9533 -34.9526 -34.9526 -34.9525
   -34.9415 -34.9413 -34.9411 -34.9410 -34.9409 -34.9409 -34.9408 -34.9408
   -34.9408 -34.9408 -34.9407 -34.9406 -34.9405 -34.9405 -34.9405 -34.9404
   -33.8103 -33.8103 -33.8103 -33.8102 -33.8102 -33.8102 -33.8102 -33.8102
   -21.5903 -21.5865 -21.5805 -21.5805 -21.5803 -21.5803 -21.5764 -21.5744
   -21.5069 -21.5069 -21.4951 -21.4920 -21.4750 -21.4750 -21.4723 -21.4723
   -21.4686 -21.4686 -21.4683 -21.4682 -21.4406 -21.4399 -21.4399 -21.4393
   -16.9382 -16.9381 -16.9380 -16.9380 -16.9372 -16.9372 -16.9368 -16.9367
   -16.9365 -16.9363 -16.9363 -16.9361 -16.9361 -16.9354 -16.9354 -16.9340
   -16.8994 -16.8994 -16.8994 -16.8994 -16.8984 -16.8984 -16.8974 -16.8973
   -16.8972 -16.8941 -16.8941 -16.8930 -16.8930 -16.8923 -16.8923 -16.8871
   -16.8512 -16.8512 -16.8512 -16.8511 -16.8501 -16.8496 -16.8489 -16.8489
   -16.8488 -16.8488 -16.8481 -16.8481 -16.8464 -16.8459 -16.8458 -16.8414
    -8.6317  -8.6317  -8.4794  -8.4794  -8.4721  -8.4268  -8.4267  -8.4212
    -8.4212  -8.4092  -8.3463  -8.3463  -8.3026  -8.3026  -8.2933  -8.2540
    -8.2269  -8.2269  -8.1708  -8.1708  -8.1316  -8.1316  -8.0212  -8.0212
    -8.0186  -8.0185  -8.0132  -8.0132  -7.9919  -7.9792  -7.9756  -7.9566
    -7.9390  -7.9104  -7.8828  -7.8828  -7.8808  -7.8695  -7.8695  -7.8594
    -7.8594  -7.8462  -7.8462  -7.8365  -7.8365  -7.8307  -7.8307  -7.7845
    -7.7725  -7.7594  -7.7594  -7.6661  -7.6661  -7.6339  -7.5966  -7.5782
    -7.5600  -7.5600  -7.5370  -7.5370  -7.5241  -7.5241  -7.5128  -7.5128
    -7.5033  -7.4632  -7.4632  -7.4426  -7.3981  -7.3981  -7.3724  -7.3677
    -7.3677  -7.3495  -7.3495  -7.2885  -7.2885  -7.2322  -7.2322  -7.2312
    -7.2043  -7.1927  -7.1869  -7.1869  -7.1394  -7.1394  -7.1384  -7.0669
    -7.0669  -7.0591  -7.0591  -7.0218  -7.0218  -6.9922  -6.9922  -6.8931
    -5.1811  -5.1811  -5.1736  -5.1736  -5.1530  -5.1530  -5.1510  -5.1510
    -5.1508  -5.1508  -5.1180  -5.1180  -5.0985  -5.0894  -5.0894  -5.0642
    -5.0642  -5.0538  -5.0242  -4.9887  -4.9887  -4.9425  -4.9425  -4.9413
    -4.9413  -4.9409  -4.9311  -4.9311  -4.9309  -4.9309  -4.8698  -4.8698
    -4.8675  -4.7855  -4.7794  -4.7794  -4.7415  -4.7075  -4.6879  -4.6822
    -4.6773  -4.6773  -4.6499  -4.6498  -4.5882  -4.5747  -4.5737  -4.5215
    -4.5215  -4.5213  -4.5213  -4.4969  -4.4969  -4.4957  -4.4956  -4.4333
    -4.4333  -4.3951  -4.3951  -4.3894  -4.3799  -4.3799  -4.3711  -4.3711
    -4.3489  -4.3489  -4.3217  -4.3217  -4.2993  -4.1718  -4.1718  -4.1326
     4.5827   4.8190   4.8190   4.8849   4.8849   4.8961   4.9247   4.9394
     4.9681   4.9681   4.9974   5.0096   5.0501   5.0502   5.0627   5.0628
     5.0828   5.0828   5.1712   5.1712   5.1938   5.2295   5.2296   5.2905
     5.2905   5.3037   5.3037   5.3154   5.3154   5.3543   5.3688   5.3688
     5.3822   5.3822   5.3947   5.3947   5.4295   5.4380   5.4653   5.4653
     5.4706   5.4725   5.4725   5.4761   5.4761   5.4785   5.4785   5.4960
     5.5359   5.5359   5.5569   5.5569   5.6047   5.6051   5.6051   5.6287
     5.6420   5.6420   5.6515   5.6515   5.6558   5.6800   5.6818   5.6818
     5.6962   5.6962   5.7496   5.7726   5.7726   5.7746   5.8055   5.8055
     5.8200   5.8200   5.8350   5.8350   5.8398   5.8409   5.8409   5.8420
     5.8420   5.8495   5.8495   5.8586   5.8586   5.8630   5.8640   5.8742
     5.8742   5.8858   5.8858   5.8975   5.8975   5.9119   5.9209   5.9209
     5.9794   5.9857   5.9879   6.0023   6.0023   6.0196   6.0282   6.0583
     6.0583   6.0606   6.0864   6.0864   6.1056   6.1220   6.1299   6.1566
     6.1583   6.1583   6.2499   6.2499   6.2771   6.3211   6.3211   6.3446
     6.3446   6.3621   6.3621   6.3743   6.4121   6.4121   6.4524   6.4525
     6.4706   6.4706   6.5120   6.5120   6.5148   6.5148   6.5209   6.5383
     6.5458   6.5458   6.5529   6.5529   6.5716   6.5774   6.5780   6.5977
     6.5977   6.6521   6.6521   6.6646   6.6649   6.6650   6.7141   6.7221
     6.7221   6.7277   6.7277   6.7426   6.7426   6.8078   6.8149   6.8328
     6.8485   6.8485   6.8873   6.8873   6.8985   6.8985   6.9154   6.9154
     6.9650   6.9650   6.9779   6.9791   6.9954   7.0381   7.0382   7.0573
     7.0573   7.0762   7.0762   7.0867   7.0868   7.1460   7.1460   7.2283
     7.2334   7.2334   7.2337   7.2424   7.2424   7.2536   7.2536   7.2538
     7.2889   7.2889   7.2949   7.2950   7.3042   7.3181   7.3181   7.3388
     7.3388   7.3457   7.3457   7.3588   7.3883   7.4020   7.4045   7.4045
     7.4105   7.4113   7.4113   7.4278   7.4279   7.4516   7.4516   7.4538
     7.4538   7.4664   7.4664   7.4680   7.4680   7.4861   7.4884   7.4884
     7.5112   7.5112   7.5164   7.5356   7.5356   7.5601   7.5820   7.5820
     7.5852   7.5853   7.5853   7.6390   7.6432   7.6432   7.6436   7.6436
     7.6597   7.6597   7.7004   7.7004   7.7025   7.7025   7.7175   7.7481
     7.7481   7.7502   7.7719   7.7719   7.7848   7.7856   7.7856   7.7918
     7.7918   7.8299   7.8299   7.8488   7.8743   7.8794   7.8795   7.8811
     7.8876   7.8876   7.9111   7.9350   7.9397   7.9397   7.9427   7.9427
     7.9535   7.9535   7.9720   7.9720   7.9735   7.9735   7.9744   7.9744
     7.9929   7.9929   8.0456   8.0568   8.0649   8.0694   8.0854   8.0854
    12.4946  12.6575  12.6826  12.6826  12.7288  12.7316  12.7316  12.7369
    12.7793  12.7793  12.8024  12.8024  12.8134  12.8628  12.8628  12.8732
    12.8732  12.8791  12.8791  12.8843  12.8844  12.9084  12.9084  12.9099
    12.9099  12.9386  12.9517  12.9782  12.9782  13.0220  13.0232  13.0232
    13.0236  13.0236  13.0278  13.0560  13.0560  13.0642  13.0642  13.0955
    13.0955  13.1190  13.1190  13.1215  13.1659  13.1778  13.2396  13.2640
    13.2640  13.3266  13.3266  13.3335  13.3336  13.3422  13.3531  13.3532
    13.3533  13.3535  13.3616  13.3618  13.3623  13.3874  13.3876  13.3912
    13.3915  13.4004  13.4042  13.4045  13.4095  13.4128  13.4130  13.4231
    13.4233  13.4342  13.4363  13.4444  13.4454  13.4461  13.4465  13.4470
    13.4472  13.4475  13.4480  13.4500  13.4529  13.4535  13.4555  13.4613
    13.4655  13.4700  13.4704  13.4721  13.4752  13.4763  13.4778  13.4808
    13.4866  13.4933  13.4936  13.4947  13.5041  13.5051  13.5064  13.5138
    13.5146  13.5194  13.5258  13.5265  13.5351  13.5357  13.5431  13.5455
    13.5486  13.5516  13.5647  13.5674  13.5728  13.5736  13.5761  13.5816

     the Fermi energy is    10.6975 ev

!    total energy              =   -7311.17916313 Ry
     estimated scf accuracy    <       0.00000066 Ry
     smearing contrib. (-TS)   =       0.00000000 Ry
     internal energy E=F+TS    =   -7311.17916313 Ry

     The total energy is F=E-TS. E is the sum of the following terms:
     one-electron contribution =   -1518.03763726 Ry
     hartree contribution      =    1393.60242357 Ry
     xc contribution           =   -1727.89361453 Ry
     ewald contribution        =   -5458.85033492 Ry

     convergence has been achieved in  13 iterations

     Forces acting on atoms (cartesian axes, Ry/au):

     atom    1 type  3   force =    -0.00000032   -0.00000069    0.00000207
     atom    2 type  3   force =     0.00000069    0.00000028   -0.00000000
     atom    3 type  3   force =    -0.00000027   -0.00000049   -0.00000072
     atom    4 type  3   force =     0.00000184    0.00000058    0.00000186
     atom    5 type  3   force =     0.00000032    0.00000069   -0.00000207
     atom    6 type  3   force =    -0.00000069   -0.00000028    0.00000000
     atom    7 type  3   force =     0.00000027    0.00000049    0.00000072
     atom    8 type  3   force =    -0.00000184   -0.00000058   -0.00000186
     atom    9 type  3   force =    -0.00000103    0.00879859    0.00000035
     atom   10 type  3   force =    -0.00000031    0.00880016   -0.00000086
     atom   11 type  3   force =     0.00880365    0.00000145    0.00000020
     atom   12 type  3   force =    -0.00880365   -0.00000145   -0.00000020
     atom   13 type  3   force =     0.00000103   -0.00879859   -0.00000035
     atom   14 type  3   force =     0.00000031   -0.00880016    0.00000086
     atom   15 type  3   force =     0.00000020   -0.00880007   -0.00000093
     atom   16 type  3   force =     0.00000014   -0.00880163    0.00000030
     atom   17 type  3   force =     0.00880152   -0.00000029   -0.00000029
     atom   18 type  3   force =    -0.00880152    0.00000029    0.00000029
     atom   19 type  3   force =    -0.00000020    0.00880007    0.00000093
     atom   20 type  3   force =    -0.00000014    0.00880163   -0.00000030
     atom   21 type  3   force =     0.00880202    0.00000013   -0.00000057
     atom   22 type  3   force =    -0.00880202   -0.00000013    0.00000057
     atom   23 type  3   force =     0.00880243    0.00000133   -0.00000048
     atom   24 type  3   force =    -0.00880243   -0.00000133    0.00000048
     atom   25 type  4   force =     0.00000100   -0.00000053    0.00000043
     atom   26 type  4   force =    -0.00000198    0.00000059    0.00000040
     atom   27 type  4   force =     0.00000000    0.00000000    0.00000000
     atom   28 type  4   force =     0.00000000    0.00000000    0.00000000
     atom   29 type  4   force =    -0.00000100    0.00000053   -0.00000043
     atom   30 type  4   force =     0.00000198   -0.00000059   -0.00000040
     atom   31 type  4   force =    -0.00000091    0.00000023   -0.00000035
     atom   32 type  4   force =    -0.00000101   -0.00000059    0.00000153
     atom   33 type  4   force =     0.00000000    0.00000000    0.00000000
     atom   34 type  4   force =     0.00000000    0.00000000    0.00000000
     atom   35 type  4   force =     0.00000091   -0.00000023    0.00000035
     atom   36 type  4   force =     0.00000101    0.00000059   -0.00000153
     atom   37 type  4   force =     0.00000000    0.00000000    0.00000000
     atom   38 type  4   force =     0.00000000    0.00000000    0.00000000
     atom   39 type  4   force =     0.00000000    0.00000000    0.00000000
     atom   40 type  4   force =     0.00000000    0.00000000    0.00000000
     atom   41 type  1   force =     0.00000057    0.00000054   -0.00000045
     atom   42 type  1   force =     0.00000070   -0.00000047   -0.00000104
     atom   43 type  1   force =     0.00000027    0.00000060   -0.00000044
     atom   44 type  1   force =     0.00000118    0.00000029   -0.00000019
     atom   45 type  1   force =    -0.00000057   -0.00000054    0.00000045
     atom   46 type  1   force =    -0.00000070    0.00000047    0.00000104
     atom   47 type  1   force =    -0.00000027   -0.00000060    0.00000044
     atom   48 type  1   force =    -0.00000118   -0.00000029    0.00000019
     atom   49 type  1   force =     0.00299185    0.00297053    0.00000133
     atom   50 type  1   force =    -0.00299195    0.00297043    0.00000080
     atom   51 type  1   force =     0.00299235    0.00297033   -0.00000106
     atom   52 type  1   force =    -0.00299193    0.00297030   -0.00000116
     atom   53 type  1   force =    -0.00299185   -0.00297053   -0.00000133
     atom   54 type  1   force =     0.00299195   -0.00297043   -0.00000080
     atom   55 type  1   force =    -0.00299235   -0.00297033    0.00000106
     atom   56 type  1   force =     0.00299193   -0.00297030    0.00000116
     atom   57 type  1   force =     0.00299180   -0.00297058    0.00000088
     atom   58 type  1   force =    -0.00299225   -0.00297020    0.00000119
     atom   59 type  1   force =     0.00299183   -0.00296975   -0.00000077
     atom   60 type  1   force =    -0.00299183   -0.00296986   -0.00000134
     atom   61 type  1   force =    -0.00299180    0.00297058   -0.00000088
     atom   62 type  1   force =     0.00299225    0.00297020   -0.00000119
     atom   63 type  1   force =    -0.00299183    0.00296975    0.00000077
     atom   64 type  1   force =     0.00299183    0.00296986    0.00000134
     atom   65 type  1   force =     0.00030752    0.00244109   -0.00254563
     atom   66 type  1   force =    -0.00030754    0.00244070   -0.00254593
     atom   67 type  1   force =     0.00250401    0.00030228   -0.00254548
     atom   68 type  1   force =    -0.00250398    0.00030251   -0.00254526
     atom   69 type  1   force =    -0.00030752   -0.00244109    0.00254563
     atom   70 type  1   force =     0.00030754   -0.00244070    0.00254593
     atom   71 type  1   force =    -0.00250401   -0.00030228    0.00254548
     atom   72 type  1   force =     0.00250398   -0.00030251    0.00254526
     atom   73 type  1   force =     0.00030662   -0.00244106   -0.00254514
     atom   74 type  1   force =    -0.00030763   -0.00244022   -0.00254599
     atom   75 type  1   force =     0.00250360   -0.00030319   -0.00254604
     atom   76 type  1   force =    -0.00250350   -0.00030262   -0.00254559
     atom   77 type  1   force =    -0.00030662    0.00244106    0.00254514
     atom   78 type  1   force =     0.00030763    0.00244022    0.00254599
     atom   79 type  1   force =    -0.00250360    0.00030319    0.00254604
     atom   80 type  1   force =     0.00250350    0.00030262    0.00254559
     atom   81 type  1   force =     0.00030729    0.00244117   -0.00254508
     atom   82 type  1   force =    -0.00030689    0.00244063   -0.00254456
     atom   83 type  1   force =     0.00250317    0.00030267   -0.00254549
     atom   84 type  1   force =    -0.00250387    0.00030294   -0.00254570
     atom   85 type  1   force =    -0.00030729   -0.00244117    0.00254508
     atom   86 type  1   force =     0.00030689   -0.00244063    0.00254456
     atom   87 type  1   force =    -0.00250317   -0.00030267    0.00254549
     atom   88 type  1   force =     0.00250387   -0.00030294    0.00254570
     atom   89 type  1   force =     0.00030746   -0.00244051   -0.00254550
     atom   90 type  1   force =    -0.00030788   -0.00244072   -0.00254541
     atom   91 type  1   force =     0.00250369   -0.00030300   -0.00254584
     atom   92 type  1   force =    -0.00250394   -0.00030257   -0.00254560
     atom   93 type  1   force =    -0.00030746    0.00244051    0.00254550
     atom   94 type  1   force =     0.00030788    0.00244072    0.00254541
     atom   95 type  1   force =    -0.00250369    0.00030300    0.00254584
     atom   96 type  1   force =     0.00250394    0.00030257    0.00254560
     atom   97 type  2   force =    -0.00052705   -0.00579439   -0.01589713
     atom   98 type  2   force =     0.00052757   -0.00579469   -0.01589745
     atom   99 type  2   force =    -0.00573043   -0.00064917   -0.01589623
     atom  100 type  2   force =     0.00573124   -0.00064932   -0.01589616
     atom  101 type  2   force =     0.00052705    0.00579439    0.01589713
     atom  102 type  2   force =    -0.00052757    0.00579469    0.01589745
     atom  103 type  2   force =     0.00573043    0.00064917    0.01589623
     atom  104 type  2   force =    -0.00573124    0.00064932    0.01589616
     atom  105 type  2   force =    -0.00052734    0.00579516   -0.01589846
     atom  106 type  2   force =     0.00052727    0.00579440   -0.01589578
     atom  107 type  2   force =    -0.00573033    0.00064953   -0.01589659
     atom  108 type  2   force =     0.00573035    0.00064843   -0.01589603
     atom  109 type  2   force =     0.00052734   -0.00579516    0.01589846
     atom  110 type  2   force =    -0.00052727   -0.00579440    0.01589578
     atom  111 type  2   force =     0.00573033   -0.00064953    0.01589659
     atom  112 type  2   force =    -0.00573035   -0.00064843    0.01589603
     atom  113 type  2   force =    -0.00052772   -0.00579400   -0.01589797
     atom  114 type  2   force =     0.00052738   -0.00579561   -0.01589789
     atom  115 type  2   force =    -0.00573140   -0.00064927   -0.01589628
     atom  116 type  2   force =     0.00572997   -0.00064908   -0.01589576
     atom  117 type  2   force =     0.00052772    0.00579400    0.01589797
     atom  118 type  2   force =    -0.00052738    0.00579561    0.01589789
     atom  119 type  2   force =     0.00573140    0.00064927    0.01589628
     atom  120 type  2   force =    -0.00572997    0.00064908    0.01589576
     atom  121 type  2   force =    -0.00052638    0.00579684   -0.01589773
     atom  122 type  2   force =     0.00052669    0.00579668   -0.01589781
     atom  123 type  2   force =    -0.00573096    0.00064934   -0.01589406
     atom  124 type  2   force =     0.00573006    0.00064865   -0.01589661
     atom  125 type  2   force =     0.00052638   -0.00579684    0.01589773
     atom  126 type  2   force =    -0.00052669   -0.00579668    0.01589781
     atom  127 type  2   force =     0.00573096   -0.00064934    0.01589406
     atom  128 type  2   force =    -0.00573006   -0.00064865    0.01589661
     atom  129 type  2   force =     0.00026339    0.00317926   -0.00387930
     atom  130 type  2   force =    -0.00026524    0.00317818   -0.00387811
     atom  131 type  2   force =     0.00308170    0.00038544   -0.00387847
     atom  132 type  2   force =    -0.00308273    0.00038604   -0.00387855
     atom  133 type  2   force =    -0.00026339   -0.00317926    0.00387930
     atom  134 type  2   force =     0.00026524   -0.00317818    0.00387811
     atom  135 type  2   force =    -0.00308170   -0.00038544    0.00387847
     atom  136 type  2   force =     0.00308273   -0.00038604    0.00387855
     atom  137 type  2   force =     0.00026490   -0.00317630   -0.00387925
     atom  138 type  2   force =    -0.00026754   -0.00317723   -0.00387692
     atom  139 type  2   force =     0.00308181   -0.00038635   -0.00387893
     atom  140 type  2   force =    -0.00308197   -0.00038336   -0.00388031
     atom  141 type  2   force =    -0.00026490    0.00317630    0.00387925
     atom  142 type  2   force =     0.00026754    0.00317723    0.00387692
     atom  143 type  2   force =    -0.00308181    0.00038635    0.00387893
     atom  144 type  2   force =     0.00308197    0.00038336    0.00388031
     atom  145 type  2   force =     0.00026566    0.00317709   -0.00387608
     atom  146 type  2   force =    -0.00026240    0.00317853   -0.00388092
     atom  147 type  2   force =     0.00308187    0.00038544   -0.00387920
     atom  148 type  2   force =    -0.00308105    0.00038697   -0.00387845
     atom  149 type  2   force =    -0.00026566   -0.00317709    0.00387608
     atom  150 type  2   force =     0.00026240   -0.00317853    0.00388092
     atom  151 type  2   force =    -0.00308187   -0.00038544    0.00387920
     atom  152 type  2   force =     0.00308105   -0.00038697    0.00387845
     atom  153 type  2   force =     0.00026543   -0.00317720   -0.00387879
     atom  154 type  2   force =    -0.00026165   -0.00317838   -0.00387870
     atom  155 type  2   force =     0.00308185   -0.00038750   -0.00387887
     atom  156 type  2   force =    -0.00308075   -0.00038646   -0.00387799
     atom  157 type  2   force =    -0.00026543    0.00317720    0.00387879
     atom  158 type  2   force =     0.00026165    0.00317838    0.00387870
     atom  159 type  2   force =    -0.00308185    0.00038750    0.00387887
     atom  160 type  2   force =     0.00308075    0.00038646    0.00387799
     atom  161 type  2   force =     0.00125178    0.00994780    0.00062304
     atom  162 type  2   force =    -0.00125446    0.00994726    0.00062397
     atom  163 type  2   force =     0.00985985    0.00116520    0.00062349
     atom  164 type  2   force =    -0.00986001    0.00116476    0.00062314
     atom  165 type  2   force =    -0.00125178   -0.00994780   -0.00062304
     atom  166 type  2   force =     0.00125446   -0.00994726   -0.00062397
     atom  167 type  2   force =    -0.00985985   -0.00116520   -0.00062349
     atom  168 type  2   force =     0.00986001   -0.00116476   -0.00062314
     atom  169 type  2   force =     0.00125385   -0.00994772    0.00062390
     atom  170 type  2   force =    -0.00125484   -0.00994863    0.00062373
     atom  171 type  2   force =     0.00985988   -0.00116262    0.00062271
     atom  172 type  2   force =    -0.00985915   -0.00116295    0.00062323
     atom  173 type  2   force =    -0.00125385    0.00994772   -0.00062390
     atom  174 type  2   force =     0.00125484    0.00994863   -0.00062373
     atom  175 type  2   force =    -0.00985988    0.00116262   -0.00062271
     atom  176 type  2   force =     0.00985915    0.00116295   -0.00062323
     atom  177 type  2   force =     0.00125295    0.00994924    0.00062514
     atom  178 type  2   force =    -0.00125293    0.00994932    0.00062440
     atom  179 type  2   force =     0.00986001    0.00116356    0.00062337
     atom  180 type  2   force =    -0.00985869    0.00116264    0.00062407
     atom  181 type  2   force =    -0.00125295   -0.00994924   -0.00062514
     atom  182 type  2   force =     0.00125293   -0.00994932   -0.00062440
     atom  183 type  2   force =    -0.00986001   -0.00116356   -0.00062337
     atom  184 type  2   force =     0.00985869   -0.00116264   -0.00062407
     atom  185 type  2   force =     0.00125364   -0.00994685    0.00062188
     atom  186 type  2   force =    -0.00125193   -0.00994865    0.00062439
     atom  187 type  2   force =     0.00986035   -0.00116411    0.00062322
     atom  188 type  2   force =    -0.00985746   -0.00116252    0.00062284
     atom  189 type  2   force =    -0.00125364    0.00994685   -0.00062188
     atom  190 type  2   force =     0.00125193    0.00994865   -0.00062439
     atom  191 type  2   force =    -0.00986035    0.00116411   -0.00062322
     atom  192 type  2   force =     0.00985746    0.00116252   -0.00062284

     Total force =     0.122828     Total SCF correction =     0.001223


     Computing stress (Cartesian axis) and pressure

          total   stress  (Ry/bohr**3)                   (kbar)     P=       15.14
   0.00010664   0.00000000  -0.00000000           15.69        0.00       -0.00
   0.00000000   0.00010662  -0.00000000            0.00       15.68       -0.00
  -0.00000000  -0.00000000   0.00009549           -0.00       -0.00       14.05


     BFGS Geometry Optimization
     Energy error            =      0.0E+00 Ry
     Gradient error          =      1.6E-02 Ry/Bohr
     Cell gradient error     =      1.6E+01 kbar

     number of scf cycles    =   1
     number of bfgs steps    =   0

     enthalpy           new  =   -7311.1791631312 Ry

     new trust radius        =       0.0646792838 bohr
     new conv_thr            =       0.0000010000 Ry

     new unit-cell volume =  14829.25631 a.u.^3 (  2197.46907 Ang^3 )
     density =      5.14743 g/cm^3

CELL_PARAMETERS (bohr)
  24.857219686   0.000000000   0.000000000
   0.000000000  24.857211361   0.000000000
   0.000000000   0.000000000  24.000175415

ATOMIC_POSITIONS (crystal)
La            0.4999999871        0.7499999722        0.6250000864
La            0.5000000278        0.7500000112        0.1249999998
La           -0.0000000111        0.7499999803        0.8749999697
La            0.0000000741        0.7500000232        0.3750000779
La            0.5000000129        0.2500000278        0.3749999136
La            0.4999999722        0.2499999888        0.8750000002
La            0.0000000111        0.2500000197        0.1250000303
La           -0.0000000741        0.2499999768        0.6249999221
La            0.2499999586        0.8776549087        0.5000000146
La            0.7499999875        0.8776549720       -0.0000000358
La            0.1276551131        0.5000000585        0.7500000082
La            0.8723448869        0.4999999415        0.2499999918
La            0.7500000414        0.1223450913        0.4999999854
La            0.2500000125        0.1223450280        0.0000000358
La            0.2500000082        0.6223450317       -0.0000000387
La            0.7500000054        0.6223449687        0.5000000124
La            0.1276550271       -0.0000000118        0.2499999880
La            0.8723449729        0.0000000118        0.7500000120
La            0.7499999918        0.3776549683        0.0000000387
La            0.2499999946        0.3776550313        0.4999999876
La            0.6276550474        0.0000000052        0.2499999760
La            0.3723449526       -0.0000000052        0.7500000240
La            0.6276550636        0.5000000536        0.7499999799
La            0.3723449364        0.4999999464        0.2500000201
Zr            0.2500000405        0.7499999785        0.7500000180
Zr            0.7499999202        0.7500000237        0.2500000166
Zr            0.0000000000        0.5000000000        0.0000000000
Zr            0.0000000000        0.5000000000        0.5000000000
Zr            0.7499999595        0.2500000215        0.2499999820
Zr            0.2500000798        0.2499999763        0.7499999834
Zr            0.2499999632        0.7500000093        0.2499999852
Zr            0.7499999594        0.7499999762        0.7500000637
Zr            0.0000000000        0.0000000000        0.5000000000
Zr            0.0000000000        0.0000000000        0.0000000000
Zr            0.7500000368        0.2499999907        0.7500000148
Zr            0.2500000406        0.2500000238        0.2499999363
Zr            0.5000000000        0.0000000000        0.5000000000
Zr            0.5000000000        0.0000000000        0.0000000000
Zr            0.5000000000        0.5000000000        0.0000000000
Zr            0.5000000000        0.5000000000        0.5000000000
Li            0.5000000231        0.7500000218        0.3749999814
Li            0.5000000284        0.7499999812        0.8749999566
Li            0.0000000108        0.7500000241        0.6249999817
Li            0.0000000475        0.7500000118        0.1249999921
Li            0.4999999769        0.2499999782        0.6250000186
Li            0.4999999716        0.2500000188        0.1250000434
Li           -0.0000000108        0.2499999759        0.3750000183
Li           -0.0000000475        0.2499999882        0.8750000079
Li            0.6775206823        0.9275198222        0.6250000555
Li            0.3224793135        0.9275198184        0.1250000333
Li            0.1775207023        0.9275198142        0.8749999556
Li            0.8224793146        0.9275198132        0.3749999517
Li            0.3224793177        0.0724801778        0.3749999445
Li            0.6775206865        0.0724801816        0.8749999667
Li            0.8224792977        0.0724801858        0.1250000444
Li            0.1775206854        0.0724801868        0.6250000483
Li            0.6775206803        0.5724801756        0.1250000366
Li            0.3224793014        0.5724801912        0.6250000498
Li            0.1775206816        0.5724802091        0.3749999678
Li            0.8224793185        0.5724802048        0.8749999440
Li            0.3224793197        0.4275198244        0.8749999634
Li            0.6775206986        0.4275198088        0.3749999502
Li            0.8224793184        0.4275197909        0.6250000322
Li            0.1775206815        0.4275197952        0.1250000560
Li            0.3370124046        0.8300984661        0.9449936795
Li            0.6629875947        0.8300984506        0.4449936672
Li            0.0801010042        0.5870121931        0.1949936859
Li            0.9198989971        0.5870122022        0.6949936951
Li            0.6629875954        0.1699015339        0.0550063205
Li            0.3370124053        0.1699015494        0.5550063328
Li            0.9198989958        0.4129878069        0.8050063141
Li            0.0801010029        0.4129877978        0.3050063049
Li            0.3370123683        0.6699015348        0.4449937002
Li            0.6629875910        0.6699015690        0.9449936646
Li            0.0801009877        0.9129877704        0.6949936624
Li            0.9198990162        0.9129877933        0.1949936814
Li            0.6629876317        0.3300984652        0.5550062998
Li            0.3370124090        0.3300984310        0.0550063354
Li            0.9198990123        0.0870122296        0.3050063376
Li            0.0801009838        0.0870122067        0.8050063186
Li            0.8370123951        0.3300984696        0.4449937028
Li            0.1629876209        0.3300984476        0.9449937243
Li            0.5801009705        0.0870122089        0.6949936854
Li            0.4198990013        0.0870122197        0.1949936766
Li            0.1629876049        0.6699015304        0.5550062972
Li            0.8370123791        0.6699015524        0.0550062757
Li            0.4198990295        0.9129877911        0.3050063146
Li            0.5801009987        0.9129877803        0.8050063234
Li            0.8370124019        0.1699015571        0.9449936852
Li            0.1629875811        0.1699015488        0.4449936889
Li            0.5801009913        0.4129877780        0.1949936710
Li            0.4198989987        0.4129877953        0.6949936808
Li            0.1629875981        0.8300984429        0.0550063148
Li            0.8370124189        0.8300984512        0.5550063111
Li            0.4198990087        0.5870122220        0.8050063290
Li            0.5801010013        0.5870122047        0.3050063192
O             0.3050787404        0.7157662715        0.5976360433
O             0.6949212807        0.7157662596        0.0976360299
O             0.9657688515        0.5550738143        0.8476360806
O             0.0342311810        0.5550738085        0.3476360837
O             0.6949212596        0.2842337285        0.4023639567
O             0.3050787193        0.2842337404        0.9023639701
O             0.0342311485        0.4449261857        0.1523639194
O             0.9657688190        0.4449261915        0.6523639163
O             0.3050787286        0.7842337596        0.0976359875
O             0.6949212685        0.7842337287        0.5976360994
O             0.9657688556        0.9449262002        0.3476360657
O             0.0342311450        0.9449261559        0.8476360890
O             0.6949212714        0.2157662404        0.9023640125
O             0.3050787315        0.2157662713        0.4023639006
O             0.0342311444        0.0550737998        0.6523639343
O             0.9657688550        0.0550738441        0.1523639110
O             0.8050787135        0.2157662874        0.0976360080
O             0.1949212729        0.2157662226        0.5976360114
O             0.4657688124        0.0550738104        0.3476360786
O             0.5342311300        0.0550738180        0.8476361004
O             0.1949212865        0.7842337126        0.9023639920
O             0.8050787271        0.7842337774        0.4023639886
O             0.5342311876        0.9449261896        0.6523639214
O             0.4657688700        0.9449261820        0.1523638996
O             0.8050787674        0.2842338271        0.5976360184
O             0.1949212451        0.2842338207        0.0976360147
O             0.4657688300        0.4449261924        0.8476361715
O             0.5342311333        0.4449261646        0.3476360650
O             0.1949212326        0.7157661729        0.4023639816
O             0.8050787549        0.7157661793        0.9023639853
O             0.5342311700        0.5550738076        0.1523638285
O             0.4657688667        0.5550738354        0.6523639350
O             0.1019106245        0.8044282419        0.2164379779
O             0.8980893009        0.8044281985        0.7164380276
O             0.0544243066        0.3519155475        0.4664380126
O             0.9455756519        0.3519155718        0.9664380092
O             0.8980893755        0.1955717581        0.7835620221
O             0.1019106991        0.1955718015        0.2835619724
O             0.9455756934        0.6480844525        0.5335619874
O             0.0544243481        0.6480844282        0.0335619908
O             0.1019106855        0.6955718776        0.7164379801
O             0.8980892082        0.6955718399        0.2164380771
O             0.0544243111        0.1480844156        0.9664379932
O             0.9455756825        0.1480845362        0.4664379357
O             0.8980893145        0.3044281224        0.2835620199
O             0.1019107918        0.3044281601        0.7835619229
O             0.9455756889        0.8519155844        0.0335620068
O             0.0544243175        0.8519154638        0.5335620643
O             0.6019107159        0.3044281543        0.7164381122
O             0.3980894157        0.3044282126        0.2164379102
O             0.5544243136        0.8519155476        0.9664379818
O             0.4455757196        0.8519156090        0.4664380134
O             0.3980892841        0.6955718457        0.2835618878
O             0.6019105843        0.6955717874        0.7835620898
O             0.4455756864        0.1480844524        0.0335620182
O             0.5544242804        0.1480843910        0.5335619866
O             0.6019107065        0.1955718413        0.2164379990
O             0.3980894459        0.1955717938        0.7164380030
O             0.5544243127        0.6480843694        0.4664379960
O             0.4455757316        0.6480844114        0.9664380324
O             0.3980892935        0.8044281587        0.7835620010
O             0.6019105541        0.8044282062        0.2835619970
O             0.4455756873        0.3519156306        0.5335620040
O             0.5544242684        0.3519155886        0.0335619676
O             0.2781504932        0.8995012647        0.3036260217
O             0.7218493988        0.8995012429        0.8036260604
O             0.1494977170        0.5281470008        0.5536260408
O             0.8505022769        0.5281469830        0.0536260260
O             0.7218495068        0.1004987353        0.6963739783
O             0.2781506012        0.1004987571        0.1963739396
O             0.8505022830        0.4718529992        0.4463739592
O             0.1494977231        0.4718530170        0.9463739740
O             0.2781505765        0.6004987388        0.8036260577
O             0.7218493837        0.6004987021        0.3036260505
O             0.1494977182        0.9718531034        0.0536260081
O             0.8505023115        0.9718530902        0.5536260297
O             0.7218494235        0.3995012612        0.1963739423
O             0.2781506163        0.3995012979        0.6963739495
O             0.8505022818        0.0281468966        0.9463739919
O             0.1494976885        0.0281469098        0.4463739703
O             0.7781505403        0.3995013225        0.8036261096
O             0.2218494604        0.3995013257        0.3036260784
O             0.6494977232        0.0281469346        0.0536260355
O             0.3505023300        0.0281468975        0.5536260648
O             0.2218494597        0.6004986775        0.1963738904
O             0.7781505396        0.6004986743        0.6963739216
O             0.3505022768        0.9718530654        0.9463739645
O             0.6494976700        0.9718531025        0.4463739352
O             0.7781505682        0.1004987738        0.3036259735
O             0.2218495007        0.1004987011        0.8036260783
O             0.6494977370        0.4718530431        0.5536260292
O             0.3505023794        0.4718531073        0.0536260135
O             0.2218494318        0.8995012262        0.6963740265
O             0.7781504993        0.8995012989        0.1963739217
O             0.3505022630        0.5281469569        0.4463739708
O             0.6494976206        0.5281468927        0.9463739865



     Writing config-only to output data dir ./LLZO.save/
     NEW-OLD atomic charge density approx. for the potential
     extrapolated charge 1209.21107, renormalised to 1200.00000

     total cpu time spent up to now is      219.3 secs

     Self-consistent Calculation

     iteration #  1     ecut=    85.00 Ry     beta= 0.20
     Davidson diagonalization with overlap
     ethr =  1.00E-06,  avg # of iterations = 10.0

     total cpu time spent up to now is      235.4 secs

     total energy              =   -7311.01602426 Ry
     estimated scf accuracy    <       0.23173502 Ry

     iteration #  2     ecut=    85.00 Ry     beta= 0.20
     Davidson diagonalization with overlap
     ethr =  1.93E-05,  avg # of iterations =  8.0

     total cpu time spent up to now is      246.3 secs

     total energy              =   -7311.20495106 Ry
     estimated scf accuracy    <       0.08281933 Ry

     iteration #  3     ecut=    85.00 Ry     beta= 0.20
     Davidson diagonalization with overlap
     ethr =  6.90E-06,  avg # of iterations = 11.0

     total cpu time spent up to now is      254.8 secs

     total energy              =   -7311.18786563 Ry
     estimated scf accuracy    <       0.04379315 Ry

     iteration #  4     ecut=    85.00 Ry     beta= 0.20
     Davidson diagonalization with overlap
     ethr =  3.65E-06,  avg # of iterations =  7.0

     total cpu time spent up to now is      263.1 secs

     total energy              =   -7311.19671760 Ry
     estimated scf accuracy    <       0.00056594 Ry

     iteration #  5     ecut=    85.00 Ry     beta= 0.20
     Davidson diagonalization with overlap
     ethr =  4.72E-08,  avg # of iterations = 12.0

     total cpu time spent up to now is      275.1 secs

     total energy              =   -7311.19727597 Ry
     estimated scf accuracy    <       0.00084955 Ry

     iteration #  6     ecut=    85.00 Ry     beta= 0.20
     Davidson diagonalization with overlap
     ethr =  4.72E-08,  avg # of iterations =  5.0

     total cpu time spent up to now is      283.9 secs

     total energy              =   -7311.19600627 Ry
     estimated scf accuracy    <       0.00349134 Ry

     iteration #  7     ecut=    85.00 Ry     beta= 0.20
     Davidson diagonalization with overlap
     ethr =  4.72E-08,  avg # of iterations =  5.0

     total cpu time spent up to now is      292.4 secs

     total energy              =   -7311.19675992 Ry
     estimated scf accuracy    <       0.00018892 Ry

     iteration #  8     ecut=    85.00 Ry     beta= 0.20
     Davidson diagonalization with overlap
     ethr =  1.57E-08,  avg # of iterations =  2.0

     total cpu time spent up to now is      297.6 secs

     total energy              =   -7311.19672953 Ry
     estimated scf accuracy    <       0.00007850 Ry

     iteration #  9     ecut=    85.00 Ry     beta= 0.20
     Davidson diagonalization with overlap
     ethr =  6.54E-09,  avg # of iterations =  6.0

     total cpu time spent up to now is      305.6 secs

     total energy              =   -7311.19675168 Ry
     estimated scf accuracy    <       0.00000320 Ry

     iteration # 10     ecut=    85.00 Ry     beta= 0.20
     Davidson diagonalization with overlap
     c_bands:  3 eigenvalues not converged
     ethr =  2.67E-10,  avg # of iterations = 20.0

     total cpu time spent up to now is      322.2 secs

     End of self-consistent calculation

          k = 0.0000 0.0000 0.0000 ( 97410 PWs)   bands (ev):

   -38.7696 -38.7696 -38.7696 -38.7696 -38.7696 -38.7696 -38.7696 -38.7695
   -38.7690 -38.7690 -38.7690 -38.7690 -38.7690 -38.7690 -38.7689 -38.7689
   -35.2669 -35.2668 -35.2668 -35.2667 -35.2652 -35.2652 -35.2651 -35.2651
   -35.2651 -35.2651 -35.2650 -35.2650 -35.2634 -35.2634 -35.2634 -35.2633
   -35.0353 -35.0346 -35.0346 -35.0343 -35.0335 -35.0334 -35.0334 -35.0333
   -35.0333 -35.0332 -35.0332 -35.0330 -35.0324 -35.0318 -35.0318 -35.0316
   -35.0207 -35.0205 -35.0203 -35.0202 -35.0201 -35.0201 -35.0201 -35.0201
   -35.0200 -35.0200 -35.0200 -35.0199 -35.0199 -35.0198 -35.0198 -35.0197
   -33.9253 -33.9253 -33.9253 -33.9253 -33.9253 -33.9253 -33.9253 -33.9253
   -21.7312 -21.7279 -21.7241 -21.7241 -21.7239 -21.7239 -21.7212 -21.7193
   -21.6269 -21.6269 -21.6188 -21.6156 -21.5958 -21.5955 -21.5932 -21.5930
   -21.5907 -21.5905 -21.5904 -21.5902 -21.5620 -21.5614 -21.5614 -21.5608
   -17.0804 -17.0801 -17.0799 -17.0799 -17.0796 -17.0794 -17.0793 -17.0791
   -17.0791 -17.0788 -17.0787 -17.0786 -17.0785 -17.0781 -17.0780 -17.0764
   -17.0469 -17.0469 -17.0464 -17.0463 -17.0460 -17.0457 -17.0451 -17.0449
   -17.0447 -17.0419 -17.0414 -17.0408 -17.0405 -17.0405 -17.0400 -17.0356
   -17.0046 -17.0046 -17.0042 -17.0041 -17.0032 -17.0029 -17.0023 -17.0022
   -17.0018 -17.0018 -17.0015 -17.0010 -16.9997 -16.9993 -16.9989 -16.9945
    -8.6916  -8.6915  -8.5412  -8.5411  -8.5386  -8.4979  -8.4979  -8.4803
    -8.4743  -8.4741  -8.4050  -8.4050  -8.3693  -8.3692  -8.3558  -8.3144
    -8.3051  -8.3050  -8.2458  -8.2458  -8.2164  -8.2163  -8.0906  -8.0906
    -8.0849  -8.0849  -8.0815  -8.0814  -8.0810  -8.0678  -8.0542  -8.0111
    -8.0102  -7.9968  -7.9688  -7.9523  -7.9523  -7.9494  -7.9494  -7.9248
    -7.9248  -7.9183  -7.9183  -7.9175  -7.9173  -7.9137  -7.9136  -7.8496
    -7.8414  -7.8407  -7.8406  -7.7565  -7.7564  -7.7001  -7.6682  -7.6654
    -7.6396  -7.6395  -7.6304  -7.6303  -7.6050  -7.6048  -7.5882  -7.5881
    -7.5840  -7.5410  -7.5410  -7.5293  -7.4897  -7.4896  -7.4637  -7.4550
    -7.4550  -7.4430  -7.4429  -7.3719  -7.3717  -7.3295  -7.3151  -7.3147
    -7.2909  -7.2893  -7.2799  -7.2797  -7.2294  -7.2292  -7.2273  -7.1641
    -7.1640  -7.1579  -7.1578  -7.1176  -7.1174  -7.0885  -7.0884  -6.9916
    -5.3050  -5.3050  -5.2987  -5.2987  -5.2723  -5.2723  -5.2716  -5.2716
    -5.2707  -5.2707  -5.2438  -5.2438  -5.2244  -5.2114  -5.2114  -5.1889
    -5.1888  -5.1796  -5.1421  -5.1195  -5.1194  -5.0652  -5.0651  -5.0650
    -5.0649  -5.0649  -5.0649  -5.0633  -5.0632  -5.0625  -5.0039  -5.0039
    -4.9927  -4.9156  -4.9095  -4.9095  -4.8685  -4.8325  -4.8112  -4.8027
    -4.8025  -4.7964  -4.7851  -4.7851  -4.7129  -4.7046  -4.6911  -4.6544
    -4.6543  -4.6505  -4.6504  -4.6204  -4.6203  -4.6190  -4.6190  -4.5729
    -4.5728  -4.5277  -4.5276  -4.5135  -4.5090  -4.5090  -4.4952  -4.4951
    -4.4718  -4.4718  -4.4435  -4.4435  -4.4345  -4.3012  -4.3012  -4.2745
     4.5312   4.7605   4.7606   4.8246   4.8247   4.8413   4.8529   4.8859
     4.9149   4.9150   4.9352   4.9559   4.9842   4.9843   5.0117   5.0119
     5.0254   5.0255   5.1116   5.1116   5.1332   5.1719   5.1720   5.2334
     5.2335   5.2336   5.2337   5.2506   5.2507   5.3014   5.3087   5.3088
     5.3095   5.3096   5.3196   5.3196   5.3501   5.3698   5.3907   5.3908
     5.4011   5.4038   5.4038   5.4093   5.4093   5.4125   5.4126   5.4218
     5.4595   5.4595   5.4822   5.4823   5.5410   5.5410   5.5516   5.5550
     5.5720   5.5721   5.5832   5.5868   5.5869   5.6133   5.6134   5.6212
     5.6240   5.6240   5.6901   5.7027   5.7027   5.7150   5.7241   5.7241
     5.7375   5.7376   5.7604   5.7604   5.7654   5.7654   5.7678   5.7679
     5.7704   5.7753   5.7820   5.7820   5.7840   5.7841   5.7991   5.8022
     5.8023   5.8091   5.8092   5.8267   5.8267   5.8393   5.8617   5.8618
     5.9047   5.9062   5.9063   5.9252   5.9253   5.9599   5.9666   5.9801
     5.9802   5.9839   6.0206   6.0206   6.0488   6.0499   6.0550   6.0688
     6.0792   6.0793   6.1702   6.1703   6.2071   6.2452   6.2452   6.2673
     6.2673   6.2810   6.2811   6.2994   6.3425   6.3425   6.3713   6.3713
     6.3932   6.3933   6.4281   6.4281   6.4327   6.4364   6.4365   6.4451
     6.4618   6.4619   6.4678   6.4678   6.4883   6.4907   6.4937   6.5223
     6.5224   6.5755   6.5755   6.5794   6.5894   6.5894   6.6198   6.6406
     6.6407   6.6513   6.6513   6.6595   6.6596   6.7177   6.7322   6.7666
     6.7672   6.7674   6.8048   6.8049   6.8126   6.8126   6.8307   6.8307
     6.8855   6.8856   6.8912   6.8962   6.9062   6.9609   6.9611   6.9770
     6.9771   6.9853   6.9856   7.0048   7.0049   7.0591   7.0592   7.1407
     7.1414   7.1439   7.1439   7.1604   7.1628   7.1629   7.1651   7.1651
     7.2027   7.2027   7.2058   7.2058   7.2108   7.2308   7.2308   7.2420
     7.2422   7.2467   7.2468   7.2662   7.3032   7.3113   7.3146   7.3147
     7.3156   7.3156   7.3190   7.3425   7.3425   7.3588   7.3588   7.3615
     7.3615   7.3774   7.3775   7.3789   7.3790   7.3903   7.3903   7.3910
     7.4231   7.4231   7.4319   7.4411   7.4411   7.4751   7.4855   7.4855
     7.4908   7.5011   7.5013   7.5484   7.5484   7.5502   7.5558   7.5559
     7.5678   7.5678   7.6066   7.6066   7.6114   7.6115   7.6225   7.6519
     7.6520   7.6578   7.6801   7.6801   7.6880   7.6881   7.6955   7.6969
     7.6969   7.7422   7.7423   7.7580   7.7803   7.7853   7.7853   7.7882
     7.7909   7.7909   7.8089   7.8377   7.8505   7.8506   7.8538   7.8540
     7.8549   7.8549   7.8739   7.8739   7.8741   7.8742   7.8789   7.8790
     7.8950   7.8951   7.9437   7.9536   7.9686   7.9787   7.9887   7.9887
    12.3845  12.5214  12.5355  12.5356  12.5850  12.6022  12.6136  12.6138
    12.6570  12.6571  12.6728  12.6730  12.6853  12.7224  12.7228  12.7379
    12.7380  12.7438  12.7441  12.7659  12.7659  12.7702  12.7706  12.7802
    12.7803  12.8137  12.8257  12.8306  12.8309  12.8774  12.8840  12.8843
    12.8869  12.8870  12.8930  12.9145  12.9149  12.9256  12.9259  12.9664
    12.9665  12.9764  12.9823  12.9824  13.0237  13.0332  13.1083  13.1265
    13.1265  13.1811  13.1813  13.1934  13.1935  13.2023  13.2098  13.2099
    13.2172  13.2174  13.2179  13.2182  13.2203  13.2449  13.2453  13.2490
    13.2495  13.2629  13.2699  13.2702  13.2724  13.2729  13.2818  13.2823
    13.2826  13.2914  13.2991  13.3028  13.3124  13.3130  13.3133  13.3149
    13.3179  13.3181  13.3184  13.3215  13.3222  13.3229  13.3234  13.3265
    13.3272  13.3290  13.3452  13.3454  13.3480  13.3482  13.3495  13.3505
    13.3532  13.3537  13.3629  13.3713  13.3762  13.3788  13.3791  13.3829
    13.3833  13.3982  13.3985  13.3989  13.4040  13.4048  13.4167  13.4187
    13.4193  13.4206  13.4271  13.4419  13.4440  13.4446  13.4494  13.4526

     the Fermi energy is    10.5657 ev

!    total energy              =   -7311.19675368 Ry
     estimated scf accuracy    <       0.00000091 Ry
     smearing contrib. (-TS)   =       0.00000000 Ry
     internal energy E=F+TS    =   -7311.19675368 Ry

     The total energy is F=E-TS. E is the sum of the following terms:
     one-electron contribution =   -1530.59727931 Ry
     hartree contribution      =    1395.02781736 Ry
     xc contribution           =   -1726.98041060 Ry
     ewald contribution        =   -5448.64688114 Ry

     convergence has been achieved in  10 iterations

     Forces acting on atoms (cartesian axes, Ry/au):

     atom    1 type  3   force =     0.00000038   -0.00000007   -0.00000094
     atom    2 type  3   force =    -0.00000003   -0.00000016   -0.00000132
     atom    3 type  3   force =     0.00000056    0.00000006    0.00000039
     atom    4 type  3   force =    -0.00000053   -0.00000031    0.00000009
     atom    5 type  3   force =    -0.00000038    0.00000007    0.00000094
     atom    6 type  3   force =     0.00000003    0.00000016    0.00000132
     atom    7 type  3   force =    -0.00000056   -0.00000006   -0.00000039
     atom    8 type  3   force =     0.00000053    0.00000031   -0.00000009
     atom    9 type  3   force =    -0.00000006    0.00663607    0.00000047
     atom   10 type  3   force =     0.00000038    0.00663601    0.00000047
     atom   11 type  3   force =     0.00661323   -0.00000034    0.00000035
     atom   12 type  3   force =    -0.00661323    0.00000034   -0.00000035
     atom   13 type  3   force =     0.00000006   -0.00663607   -0.00000047
     atom   14 type  3   force =    -0.00000038   -0.00663601   -0.00000047
     atom   15 type  3   force =    -0.00000018   -0.00663587    0.00000045
     atom   16 type  3   force =    -0.00000065   -0.00663538   -0.00000022
     atom   17 type  3   force =     0.00661301    0.00000065   -0.00000032
     atom   18 type  3   force =    -0.00661301   -0.00000065    0.00000032
     atom   19 type  3   force =     0.00000018    0.00663587   -0.00000045
     atom   20 type  3   force =     0.00000065    0.00663538    0.00000022
     atom   21 type  3   force =     0.00661322   -0.00000062   -0.00000019
     atom   22 type  3   force =    -0.00661322    0.00000062    0.00000019
     atom   23 type  3   force =     0.00661300   -0.00000061    0.00000040
     atom   24 type  3   force =    -0.00661300    0.00000061   -0.00000040
     atom   25 type  4   force =    -0.00000025   -0.00000013    0.00000009
     atom   26 type  4   force =    -0.00000016   -0.00000010    0.00000056
     atom   27 type  4   force =     0.00000000    0.00000000    0.00000000
     atom   28 type  4   force =     0.00000000    0.00000000    0.00000000
     atom   29 type  4   force =     0.00000025    0.00000013   -0.00000009
     atom   30 type  4   force =     0.00000016    0.00000010   -0.00000056
     atom   31 type  4   force =     0.00000055   -0.00000058   -0.00000010
     atom   32 type  4   force =     0.00000061    0.00000003   -0.00000142
     atom   33 type  4   force =     0.00000000    0.00000000    0.00000000
     atom   34 type  4   force =     0.00000000    0.00000000    0.00000000
     atom   35 type  4   force =    -0.00000055    0.00000058    0.00000010
     atom   36 type  4   force =    -0.00000061   -0.00000003    0.00000142
     atom   37 type  4   force =     0.00000000    0.00000000    0.00000000
     atom   38 type  4   force =     0.00000000    0.00000000    0.00000000
     atom   39 type  4   force =     0.00000000    0.00000000    0.00000000
     atom   40 type  4   force =     0.00000000    0.00000000    0.00000000
     atom   41 type  1   force =    -0.00000020   -0.00000023    0.00000257
     atom   42 type  1   force =    -0.00000033    0.00000002    0.00000267
     atom   43 type  1   force =    -0.00000009   -0.00000010   -0.00000220
     atom   44 type  1   force =    -0.00000033   -0.00000020   -0.00000237
     atom   45 type  1   force =     0.00000020    0.00000023   -0.00000257
     atom   46 type  1   force =     0.00000033   -0.00000002   -0.00000267
     atom   47 type  1   force =     0.00000009    0.00000010    0.00000220
     atom   48 type  1   force =     0.00000033    0.00000020    0.00000237
     atom   49 type  1   force =     0.00223665    0.00222733    0.00000233
     atom   50 type  1   force =    -0.00223683    0.00222726    0.00000238
     atom   51 type  1   force =     0.00223677    0.00222729   -0.00000242
     atom   52 type  1   force =    -0.00223681    0.00222740   -0.00000234
     atom   53 type  1   force =    -0.00223665   -0.00222733   -0.00000233
     atom   54 type  1   force =     0.00223683   -0.00222726   -0.00000238
     atom   55 type  1   force =    -0.00223677   -0.00222729    0.00000242
     atom   56 type  1   force =     0.00223681   -0.00222740    0.00000234
     atom   57 type  1   force =     0.00223665   -0.00222743    0.00000223
     atom   58 type  1   force =    -0.00223662   -0.00222745    0.00000234
     atom   59 type  1   force =     0.00223667   -0.00222764   -0.00000234
     atom   60 type  1   force =    -0.00223674   -0.00222766   -0.00000231
     atom   61 type  1   force =    -0.00223665    0.00222743   -0.00000223
     atom   62 type  1   force =     0.00223662    0.00222745   -0.00000234
     atom   63 type  1   force =    -0.00223667    0.00222764    0.00000234
     atom   64 type  1   force =     0.00223674    0.00222766    0.00000231
     atom   65 type  1   force =    -0.00055654    0.00235086   -0.00209382
     atom   66 type  1   force =     0.00055649    0.00235118   -0.00209369
     atom   67 type  1   force =     0.00239295   -0.00056885   -0.00209511
     atom   68 type  1   force =    -0.00239308   -0.00056884   -0.00209501
     atom   69 type  1   force =     0.00055654   -0.00235086    0.00209382
     atom   70 type  1   force =    -0.00055649   -0.00235118    0.00209369
     atom   71 type  1   force =    -0.00239295    0.00056885    0.00209511
     atom   72 type  1   force =     0.00239308    0.00056884    0.00209501
     atom   73 type  1   force =    -0.00055636   -0.00235123   -0.00209398
     atom   74 type  1   force =     0.00055641   -0.00235134   -0.00209376
     atom   75 type  1   force =     0.00239319    0.00056868   -0.00209494
     atom   76 type  1   force =    -0.00239308    0.00056863   -0.00209505
     atom   77 type  1   force =     0.00055636    0.00235123    0.00209398
     atom   78 type  1   force =    -0.00055641    0.00235134    0.00209376
     atom   79 type  1   force =    -0.00239319   -0.00056868    0.00209494
     atom   80 type  1   force =     0.00239308   -0.00056863    0.00209505
     atom   81 type  1   force =    -0.00055649    0.00235085   -0.00209408
     atom   82 type  1   force =     0.00055648    0.00235109   -0.00209387
     atom   83 type  1   force =     0.00239307   -0.00056872   -0.00209514
     atom   84 type  1   force =    -0.00239301   -0.00056881   -0.00209505
     atom   85 type  1   force =     0.00055649   -0.00235085    0.00209408
     atom   86 type  1   force =    -0.00055648   -0.00235109    0.00209387
     atom   87 type  1   force =    -0.00239307    0.00056872    0.00209514
     atom   88 type  1   force =     0.00239301    0.00056881    0.00209505
     atom   89 type  1   force =    -0.00055656   -0.00235131   -0.00209376
     atom   90 type  1   force =     0.00055655   -0.00235092   -0.00209390
     atom   91 type  1   force =     0.00239299    0.00056892   -0.00209516
     atom   92 type  1   force =    -0.00239276    0.00056878   -0.00209508
     atom   93 type  1   force =     0.00055656    0.00235131    0.00209376
     atom   94 type  1   force =    -0.00055655    0.00235092    0.00209390
     atom   95 type  1   force =    -0.00239299   -0.00056892    0.00209516
     atom   96 type  1   force =     0.00239276   -0.00056878    0.00209508
     atom   97 type  2   force =    -0.00157045   -0.00291096   -0.00745049
     atom   98 type  2   force =     0.00157091   -0.00290985   -0.00745257
     atom   99 type  2   force =    -0.00284326   -0.00167119   -0.00746525
     atom  100 type  2   force =     0.00284252   -0.00166942   -0.00746387
[...]
         8           La  tau(   8) = (   0.0000000   0.2512915   0.6022401  )
         9           La  tau(   9) = (   0.2512757   0.8827336   0.4817953  )
        10           La  tau(  10) = (   0.7538272   0.8827336  -0.0000000  )
        11           La  tau(  11) = (   0.1288561   0.5025830   0.7226930  )
        12           La  tau(  12) = (   0.8762468   0.5025830   0.2408977  )
        13           La  tau(  13) = (   0.7538272   0.1224324   0.4817953  )
        14           La  tau(  14) = (   0.2512757   0.1224323   0.0000000  )
        15           La  tau(  15) = (   0.2512757   0.6250154   0.0000000  )
        16           La  tau(  16) = (   0.7538272   0.6250154   0.4817953  )
        17           La  tau(  17) = (   0.1288561   0.0000000   0.2408977  )
        18           La  tau(  18) = (   0.8762468  -0.0000000   0.7226930  )
        19           La  tau(  19) = (   0.7538272   0.3801506  -0.0000000  )
        20           La  tau(  20) = (   0.2512758   0.3801506   0.4817954  )
        21           La  tau(  21) = (   0.6314076   0.0000000   0.2408977  )
        22           La  tau(  22) = (   0.3736954  -0.0000000   0.7226930  )
        23           La  tau(  23) = (   0.6314076   0.5025829   0.7226930  )
        24           La  tau(  24) = (   0.3736954   0.5025830   0.2408977  )
        25           Zr  tau(  25) = (   0.2512758   0.7538745   0.7226930  )
        26           Zr  tau(  26) = (   0.7538272   0.7538745   0.2408976  )
        27           Zr  tau(  27) = (   0.0000000   0.5025830   0.0000000  )
        28           Zr  tau(  28) = (   0.0000000   0.5025830   0.4817953  )
        29           Zr  tau(  29) = (   0.7538272   0.2512915   0.2408977  )
        30           Zr  tau(  30) = (   0.2512757   0.2512915   0.7226930  )
        31           Zr  tau(  31) = (   0.2512757   0.7538745   0.2408977  )
        32           Zr  tau(  32) = (   0.7538272   0.7538744   0.7226930  )
        33           Zr  tau(  33) = (   0.0000000   0.0000000   0.4817953  )
        34           Zr  tau(  34) = (   0.0000000   0.0000000   0.0000000  )
        35           Zr  tau(  35) = (   0.7538272   0.2512915   0.7226930  )
        36           Zr  tau(  36) = (   0.2512757   0.2512915   0.2408977  )
        37           Zr  tau(  37) = (   0.5025515   0.0000000   0.4817953  )
        38           Zr  tau(  38) = (   0.5025515   0.0000000   0.0000000  )
        39           Zr  tau(  39) = (   0.5025515   0.5025830   0.0000000  )
        40           Zr  tau(  40) = (   0.5025515   0.5025830   0.4817953  )
        41           Li  tau(  41) = (   0.5025515   0.7538745   0.3613414  )
        42           Li  tau(  42) = (   0.5025515   0.7538745   0.8431367  )
        43           Li  tau(  43) = (   0.0000000   0.7538745   0.6022493  )
        44           Li  tau(  44) = (  -0.0000000   0.7538745   0.1204539  )
        45           Li  tau(  45) = (   0.5025515   0.2512915   0.6022493  )
        46           Li  tau(  46) = (   0.5025515   0.2512915   0.1204539  )
        47           Li  tau(  47) = (  -0.0000000   0.2512915   0.3613414  )
        48           Li  tau(  48) = (   0.0000000   0.2512915   0.8431368  )
        49           Li  tau(  49) = (   0.6818387   0.9331775   0.6022479  )
        50           Li  tau(  50) = (   0.3232643   0.9331775   0.1204525  )
        51           Li  tau(  51) = (   0.1792872   0.9331775   0.8431381  )
        52           Li  tau(  52) = (   0.8258158   0.9331775   0.3613428  )
        53           Li  tau(  53) = (   0.3232643   0.0719885   0.3613428  )
        54           Li  tau(  54) = (   0.6818387   0.0719885   0.8431381  )
        55           Li  tau(  55) = (   0.8258158   0.0719885   0.1204526  )
        56           Li  tau(  56) = (   0.1792872   0.0719885   0.6022479  )
        57           Li  tau(  57) = (   0.6818387   0.5745715   0.1204526  )
        58           Li  tau(  58) = (   0.3232643   0.5745715   0.6022479  )
        59           Li  tau(  59) = (   0.1792872   0.5745715   0.3613428  )
        60           Li  tau(  60) = (   0.8258158   0.5745714   0.8431381  )
        61           Li  tau(  61) = (   0.3232643   0.4305945   0.8431381  )
        62           Li  tau(  62) = (   0.6818386   0.4305945   0.3613428  )
        63           Li  tau(  63) = (   0.8258158   0.4305945   0.6022479  )
        64           Li  tau(  64) = (   0.1792872   0.4305945   0.1204526  )
        65           Li  tau(  65) = (   0.3376908   0.8356765   0.9095316  )
        66           Li  tau(  66) = (   0.6674121   0.8356765   0.4277363  )
        67           Li  tau(  67) = (   0.0817842   0.5889917   0.1868376  )
        68           Li  tau(  68) = (   0.9233188   0.5889917   0.6686330  )
        69           Li  tau(  69) = (   0.6674121   0.1694895   0.0540590  )
        70           Li  tau(  70) = (   0.3376908   0.1694895   0.5358544  )
        71           Li  tau(  71) = (   0.9233188   0.4161742   0.7767530  )
        72           Li  tau(  72) = (   0.0817842   0.4161743   0.2949577  )
        73           Li  tau(  73) = (   0.3376908   0.6720725   0.4277363  )
        74           Li  tau(  74) = (   0.6674121   0.6720725   0.9095316  )
        75           Li  tau(  75) = (   0.0817842   0.9187572   0.6686330  )
        76           Li  tau(  76) = (   0.9233188   0.9187572   0.1868377  )
        77           Li  tau(  77) = (   0.6674122   0.3330934   0.5358544  )
        78           Li  tau(  78) = (   0.3376908   0.3330935   0.0540591  )
        79           Li  tau(  79) = (   0.9233188   0.0864087   0.2949577  )
        80           Li  tau(  80) = (   0.0817842   0.0864088   0.7767530  )
        81           Li  tau(  81) = (   0.8402423   0.3330935   0.4277362  )
        82           Li  tau(  82) = (   0.1648607   0.3330934   0.9095317  )
        83           Li  tau(  83) = (   0.5843357   0.0864087   0.6686330  )
        84           Li  tau(  84) = (   0.4207673   0.0864087   0.1868376  )
        85           Li  tau(  85) = (   0.1648606   0.6720725   0.5358544  )
        86           Li  tau(  86) = (   0.8402423   0.6720726   0.0540590  )
        87           Li  tau(  87) = (   0.4207673   0.9187573   0.2949577  )
        88           Li  tau(  88) = (   0.5843357   0.9187573   0.7767530  )
        89           Li  tau(  89) = (   0.8402423   0.1694895   0.9095317  )
        90           Li  tau(  90) = (   0.1648607   0.1694896   0.4277363  )
        91           Li  tau(  91) = (   0.5843356   0.4161742   0.1868376  )
        92           Li  tau(  92) = (   0.4207673   0.4161743   0.6686330  )
        93           Li  tau(  93) = (   0.1648607   0.8356764   0.0540590  )
        94           Li  tau(  94) = (   0.8402423   0.8356764   0.5358544  )
        95           Li  tau(  95) = (   0.4207673   0.5889918   0.7767531  )
        96           Li  tau(  96) = (   0.5843357   0.5889917   0.2949577  )
        97           O   tau(  97) = (   0.3067092   0.7188170   0.5747413  )
        98           O   tau(  98) = (   0.6983938   0.7188171   0.0929460  )
        99           O   tau(  99) = (   0.9700805   0.5579699   0.8156318  )
       100           O   tau( 100) = (   0.0350225   0.5579699   0.3338364  )
       101           O   tau( 101) = (   0.6983938   0.2863489   0.3888493  )
       102           O   tau( 102) = (   0.3067092   0.2863489   0.8706447  )
       103           O   tau( 103) = (   0.0350225   0.4471961   0.1479589  )
       104           O   tau( 104) = (   0.9700805   0.4471961   0.6297542  )
       105           O   tau( 105) = (   0.3067092   0.7889319   0.0929460  )
       106           O   tau( 106) = (   0.6983937   0.7889319   0.5747413  )
       107           O   tau( 107) = (   0.9700804   0.9497791   0.3338365  )
       108           O   tau( 108) = (   0.0350225   0.9497791   0.8156318  )
       109           O   tau( 109) = (   0.6983938   0.2162341   0.8706447  )
       110           O   tau( 110) = (   0.3067092   0.2162341   0.3888494  )
       111           O   tau( 111) = (   0.0350225   0.0553869   0.6297542  )
       112           O   tau( 112) = (   0.9700805   0.0553869   0.1479589  )
       113           O   tau( 113) = (   0.8092607   0.2162341   0.0929460  )
       114           O   tau( 114) = (   0.1958423   0.2162341   0.5747413  )
       115           O   tau( 115) = (   0.4675290   0.0553869   0.3338364  )
       116           O   tau( 116) = (   0.5375740   0.0553869   0.8156318  )
       117           O   tau( 117) = (   0.1958423   0.7889319   0.8706447  )
       118           O   tau( 118) = (   0.8092607   0.7889319   0.3888494  )
       119           O   tau( 119) = (   0.5375740   0.9497791   0.6297542  )
       120           O   tau( 120) = (   0.4675289   0.9497791   0.1479589  )
       121           O   tau( 121) = (   0.8092607   0.2863489   0.5747413  )
       122           O   tau( 122) = (   0.1958423   0.2863489   0.0929460  )
       123           O   tau( 123) = (   0.4675290   0.4471961   0.8156318  )
       124           O   tau( 124) = (   0.5375740   0.4471961   0.3338364  )
       125           O   tau( 125) = (   0.1958423   0.7188171   0.3888493  )
       126           O   tau( 126) = (   0.8092607   0.7188170   0.8706447  )
       127           O   tau( 127) = (   0.5375740   0.5579699   0.1479589  )
       128           O   tau( 128) = (   0.4675290   0.5579699   0.6297542  )
       129           O   tau( 129) = (   0.1036370   0.8084761   0.2076723  )
       130           O   tau( 130) = (   0.9014660   0.8084761   0.6894677  )
       131           O   tau( 131) = (   0.0545438   0.3549308   0.4485758  )
       132           O   tau( 132) = (   0.9505591   0.3549309   0.9303711  )
       133           O   tau( 133) = (   0.9014660   0.1966899   0.7559183  )
       134           O   tau( 134) = (   0.1036370   0.1966899   0.2741230  )
       135           O   tau( 135) = (   0.9505592   0.6502351   0.5150149  )
       136           O   tau( 136) = (   0.0545438   0.6502351   0.0332195  )
       137           O   tau( 137) = (   0.1036370   0.6992729   0.6894677  )
       138           O   tau( 138) = (   0.9014660   0.6992730   0.2076723  )
       139           O   tau( 139) = (   0.0545439   0.1476522   0.9303712  )
       140           O   tau( 140) = (   0.9505591   0.1476521   0.4485758  )
       141           O   tau( 141) = (   0.9014660   0.3058931   0.2741230  )
       142           O   tau( 142) = (   0.1036370   0.3058930   0.7559183  )
       143           O   tau( 143) = (   0.9505591   0.8575138   0.0332195  )
       144           O   tau( 144) = (   0.0545439   0.8575139   0.5150149  )
       145           O   tau( 145) = (   0.6061885   0.3058931   0.6894677  )
       146           O   tau( 146) = (   0.3989145   0.3058931   0.2076724  )
       147           O   tau( 147) = (   0.5570953   0.8575138   0.9303712  )
       148           O   tau( 148) = (   0.4480076   0.8575138   0.4485758  )
       149           O   tau( 149) = (   0.3989145   0.6992729   0.2741230  )
       150           O   tau( 150) = (   0.6061885   0.6992729   0.7559183  )
       151           O   tau( 151) = (   0.4480077   0.1476521   0.0332195  )
       152           O   tau( 152) = (   0.5570953   0.1476522   0.5150149  )
       153           O   tau( 153) = (   0.6061884   0.1966899   0.2076724  )
       154           O   tau( 154) = (   0.3989145   0.1966899   0.6894677  )
       155           O   tau( 155) = (   0.5570953   0.6502351   0.4485758  )
       156           O   tau( 156) = (   0.4480077   0.6502351   0.9303711  )
       157           O   tau( 157) = (   0.3989145   0.8084761   0.7559183  )
       158           O   tau( 158) = (   0.6061884   0.8084761   0.2741229  )
       159           O   tau( 159) = (   0.4480076   0.3549309   0.5150149  )
       160           O   tau( 160) = (   0.5570953   0.3549308   0.0332195  )
       161           O   tau( 161) = (   0.2789088   0.9047155   0.2922307  )
       162           O   tau( 162) = (   0.7261942   0.9047155   0.7740261  )
       163           O   tau( 163) = (   0.1508554   0.5301835   0.5331189  )
       164           O   tau( 164) = (   0.8542476   0.5301835   0.0513235  )
       165           O   tau( 165) = (   0.7261942   0.1004504   0.6713600  )
       166           O   tau( 166) = (   0.2789088   0.1004505   0.1895646  )
       167           O   tau( 167) = (   0.8542476   0.4749825   0.4304718  )
       168           O   tau( 168) = (   0.1508554   0.4749825   0.9122671  )
       169           O   tau( 169) = (   0.2789088   0.6030335   0.7740261  )
       170           O   tau( 170) = (   0.7261942   0.6030335   0.2922306  )
       171           O   tau( 171) = (   0.1508554   0.9775655   0.0513235  )
       172           O   tau( 172) = (   0.8542476   0.9775655   0.5331189  )
       173           O   tau( 173) = (   0.7261942   0.4021325   0.1895646  )
       174           O   tau( 174) = (   0.2789088   0.4021325   0.6713600  )
       175           O   tau( 175) = (   0.8542476   0.0276005   0.9122671  )
       176           O   tau( 176) = (   0.1508554   0.0276005   0.4304718  )
       177           O   tau( 177) = (   0.7814603   0.4021325   0.7740260  )
       178           O   tau( 178) = (   0.2236427   0.4021325   0.2922307  )
       179           O   tau( 179) = (   0.6534069   0.0276005   0.0513235  )
       180           O   tau( 180) = (   0.3516961   0.0276005   0.5331189  )
       181           O   tau( 181) = (   0.2236427   0.6030335   0.1895646  )
       182           O   tau( 182) = (   0.7814603   0.6030334   0.6713599  )
       183           O   tau( 183) = (   0.3516961   0.9775655   0.9122671  )
       184           O   tau( 184) = (   0.6534069   0.9775655   0.4304718  )
       185           O   tau( 185) = (   0.7814603   0.1004505   0.2922307  )
       186           O   tau( 186) = (   0.2236427   0.1004504   0.7740260  )
       187           O   tau( 187) = (   0.6534069   0.4749825   0.5331189  )
       188           O   tau( 188) = (   0.3516961   0.4749825   0.0513235  )
       189           O   tau( 189) = (   0.2236427   0.9047155   0.6713600  )
       190           O   tau( 190) = (   0.7814603   0.9047155   0.1895647  )
       191           O   tau( 191) = (   0.3516961   0.5301835   0.4304718  )
       192           O   tau( 192) = (   0.6534069   0.5301834   0.9122671  )

     number of k points=     1  Fermi-Dirac smearing, width (Ry)=  0.0032
                       cart. coord. in units 2pi/alat
        k(    1) = (   0.0000000   0.0000000   0.0000000), wk =   2.0000000

     Dense  grid:   785227 G-vectors     FFT dimensions: ( 150, 150, 144)

     Estimated max dynamical RAM per process >     124.55 MB

     Estimated total dynamical RAM >      15.57 GB

     Initial potential from superposition of free atoms

     starting charge    1199.4929, renormalised to    1200.0000
     Starting wfcs are  896 randomized atomic wfcs

     total cpu time spent up to now is     1470.1 secs

     Self-consistent Calculation

     iteration #  1     ecut=    85.00 Ry     beta= 0.20
     Davidson diagonalization with overlap
     c_bands: 21 eigenvalues not converged
     ethr =  1.00E-06,  avg # of iterations =120.0

     total cpu time spent up to now is     1589.6 secs

     total energy              =   -7309.55951976 Ry
     estimated scf accuracy    <      48.62128070 Ry

     iteration #  2     ecut=    85.00 Ry     beta= 0.20
     Davidson diagonalization with overlap
     ethr =  4.05E-03,  avg # of iterations =  2.0

     total cpu time spent up to now is     1595.2 secs

     total energy              =   -7308.28822702 Ry
     estimated scf accuracy    <       9.97249296 Ry

     iteration #  3     ecut=    85.00 Ry     beta= 0.20
     Davidson diagonalization with overlap
     ethr =  8.31E-04,  avg # of iterations =  7.0

     total cpu time spent up to now is     1604.6 secs

     total energy              =   -7310.83259220 Ry
     estimated scf accuracy    <       1.34044412 Ry

     iteration #  4     ecut=    85.00 Ry     beta= 0.20
     Davidson diagonalization with overlap
     ethr =  1.12E-04,  avg # of iterations = 17.0

     total cpu time spent up to now is     1618.7 secs

     total energy              =   -7311.15994678 Ry
     estimated scf accuracy    <       0.50752163 Ry

     iteration #  5     ecut=    85.00 Ry     beta= 0.20
     Davidson diagonalization with overlap
     ethr =  4.23E-05,  avg # of iterations = 18.0

     total cpu time spent up to now is     1633.7 secs

     total energy              =   -7311.11884713 Ry
     estimated scf accuracy    <       0.23235182 Ry

     iteration #  6     ecut=    85.00 Ry     beta= 0.20
     Davidson diagonalization with overlap
     ethr =  1.94E-05,  avg # of iterations = 17.0

     total cpu time spent up to now is     1647.1 secs

     total energy              =   -7311.20477980 Ry
     estimated scf accuracy    <       0.05134388 Ry

     iteration #  7     ecut=    85.00 Ry     beta= 0.20
     Davidson diagonalization with overlap
     ethr =  4.28E-06,  avg # of iterations = 50.0

     total cpu time spent up to now is     1683.2 secs

     total energy              =   -7311.20371019 Ry
     estimated scf accuracy    <       0.01928622 Ry

     iteration #  8     ecut=    85.00 Ry     beta= 0.20
     Davidson diagonalization with overlap
     ethr =  1.61E-06,  avg # of iterations = 27.0

     total cpu time spent up to now is     1705.4 secs

     total energy              =   -7311.20878913 Ry
     estimated scf accuracy    <       0.00285546 Ry

     iteration #  9     ecut=    85.00 Ry     beta= 0.20
     Davidson diagonalization with overlap
     ethr =  2.38E-07,  avg # of iterations =  9.0

     total cpu time spent up to now is     1715.2 secs

     total energy              =   -7311.20959765 Ry
     estimated scf accuracy    <       0.00027813 Ry

     iteration # 10     ecut=    85.00 Ry     beta= 0.20
     Davidson diagonalization with overlap
     ethr =  2.32E-08,  avg # of iterations =  9.0

     total cpu time spent up to now is     1726.4 secs

     total energy              =   -7311.20978046 Ry
     estimated scf accuracy    <       0.00019218 Ry

     iteration # 11     ecut=    85.00 Ry     beta= 0.20
     Davidson diagonalization with overlap
     ethr =  1.60E-08,  avg # of iterations =  1.0

     total cpu time spent up to now is     1731.2 secs

     total energy              =   -7311.20969868 Ry
     estimated scf accuracy    <       0.00020469 Ry

     iteration # 12     ecut=    85.00 Ry     beta= 0.20
     Davidson diagonalization with overlap
     ethr =  1.60E-08,  avg # of iterations =  6.0

     total cpu time spent up to now is     1739.6 secs

     total energy              =   -7311.20974386 Ry
     estimated scf accuracy    <       0.00000197 Ry

     iteration # 13     ecut=    85.00 Ry     beta= 0.20
     Davidson diagonalization with overlap
     c_bands:  3 eigenvalues not converged
     ethr =  1.64E-10,  avg # of iterations = 60.0

     total cpu time spent up to now is     1778.9 secs

     total energy              =   -7311.20974810 Ry
     estimated scf accuracy    <       0.00000849 Ry

     iteration # 14     ecut=    85.00 Ry     beta= 0.20
     Davidson diagonalization with overlap
     ethr =  1.64E-10,  avg # of iterations =  5.0

     total cpu time spent up to now is     1788.1 secs

     total energy              =   -7311.20974940 Ry
     estimated scf accuracy    <       0.00000022 Ry

     iteration # 15     ecut=    85.00 Ry     beta= 0.20
     Davidson diagonalization with overlap
     ethr =  1.87E-11,  avg # of iterations = 10.0

     total cpu time spent up to now is     1801.8 secs

     total energy              =   -7311.20974928 Ry
     estimated scf accuracy    <       0.00000075 Ry

     iteration # 16     ecut=    85.00 Ry     beta= 0.20
     Davidson diagonalization with overlap
