
     Program PWSCF v.7.0 starts on 11Mar2022 at 15:10:55 

     This program is part of the open-source Quantum ESPRESSO suite
     for quantum simulation of materials; please cite
         "P. Giannozzi et al., J. Phys.:Condens. Matter 21 395502 (2009);
         "P. Giannozzi et al., J. Phys.:Condens. Matter 29 465901 (2017);
         "P. Giannozzi et al., J. Chem. Phys. 152 154105 (2020);
          URL http://www.quantum-espresso.org", 
     in publications or presentations arising from this work. More details at
     http://www.quantum-espresso.org/quote

     Parallel version (MPI & OpenMP), running on     512 processor cores
     Number of MPI processes:               128
     Threads/MPI process:                     4

     MPI processes distributed on     8 nodes
     R & G space division:  proc/nbgrp/npool/nimage =     128
     91770 MiB available memory on the printing compute node when the environment starts
 
     Reading input from LLZO_ecut85Ry.vc-relax.in

     Current dimensions of program PWSCF are:
     Max number of different atomic species (ntypx) = 10
     Max number of k-points (npk) =  40000
     Max angular momentum in pseudopotentials (lmaxx) =  4

     gamma-point specific algorithms are used
     Found identity + (  0.5000  0.5000  0.5000) symmetry
     This is a supercell, fractional translations are disabled
     Message from routine setup:
     using ibrav=0 with symmetry is DISCOURAGED, use correct ibrav instead

     Subspace diagonalization in iterative solution of the eigenvalue problem:
     one sub-group per band group will be used
     scalapack distributed-memory algorithm (size of sub-group: 11* 11 procs)

 
     Parallelization info
     --------------------
     sticks:   dense  smooth     PW     G-vecs:    dense   smooth      PW
     Min         128     128     32                12152    12152    1516
     Max         130     130     34                12182    12182    1530
     Sum       16613   16613   4165              1557881  1557881  194819
 
     Using Slab Decomposition
 


     bravais-lattice index     =            0
     lattice parameter (alat)  =      24.7911  a.u.
     unit-cell volume          =   14715.3804 (a.u.)^3
     number of atoms/cell      =          192
     number of atomic types    =            4
     number of electrons       =      1200.00
     number of Kohn-Sham states=          720
     kinetic-energy cutoff     =      85.0000  Ry
     charge density cutoff     =     340.0000  Ry
     scf convergence threshold =      1.0E-06
     mixing beta               =       0.2000
     number of iterations used =            8  plain     mixing
     energy convergence thresh.=      1.0E-04
     force convergence thresh. =      1.0E-03
     press convergence thresh. =      5.0E-01
     Exchange-correlation= PBE
                           (   1   4   3   4   0   0   0)
     nstep                     =           50


     celldm(1)=  24.791128  celldm(2)=   0.000000  celldm(3)=   0.000000
     celldm(4)=   0.000000  celldm(5)=   0.000000  celldm(6)=   0.000000

     crystal axes: (cart. coord. in units of alat)
               a(1) = (   1.000000   0.000000   0.000000 )  
               a(2) = (   0.000000   1.000000   0.000000 )  
               a(3) = (   0.000000   0.000000   0.965790 )  

     reciprocal axes: (cart. coord. in units 2 pi/alat)
               b(1) = (  1.000000  0.000000  0.000000 )  
               b(2) = (  0.000000  1.000000  0.000000 )  
               b(3) = (  0.000000  0.000000  1.035422 )  


     PseudoPot. # 1 for Li read from file:
     ./Li.upf
     MD5 check sum: dbcf0ea72988e720c8c712b432d51b0d
     Pseudo is Norm-conserving, Zval =  3.0
     Generated using ONCVPSP code by D. R. Hamann
     Using radial grid of 1944 points,  4 beta functions with: 
                l(1) =   0
                l(2) =   0
                l(3) =   1
                l(4) =   1

     PseudoPot. # 2 for O  read from file:
     ./O.upf
     MD5 check sum: 3e3f909f7470e8921608ab6b1f57bbae
     Pseudo is Norm-conserving + core correction, Zval =  6.0
     Generated using ONCVPSP code by D. R. Hamann
     Using radial grid of  936 points,  5 beta functions with: 
                l(1) =   0
                l(2) =   0
                l(3) =   1
                l(4) =   1
                l(5) =   2

     PseudoPot. # 3 for La read from file:
     ./La.upf
     MD5 check sum: cd9f961d044315b77468ddb00b57bfe4
     Pseudo is Norm-conserving + core correction, Zval = 11.0
     Generated using ONCVPSP code by D. R. Hamann
     Using radial grid of 1812 points,  8 beta functions with: 
                l(1) =   0
                l(2) =   0
                l(3) =   1
                l(4) =   1
                l(5) =   2
                l(6) =   2
                l(7) =   3
                l(8) =   3

     PseudoPot. # 4 for Zr read from file:
     ./Zr.upf
     MD5 check sum: 8ea2969ae37cb4187a0232e4a563b421
     Pseudo is Norm-conserving + core correction, Zval = 12.0
     Generated using ONCVPSP code by D. R. Hamann
     Using radial grid of 1622 points,  6 beta functions with: 
                l(1) =   0
                l(2) =   0
                l(3) =   1
                l(4) =   1
                l(5) =   2
                l(6) =   2

     atomic species   valence    mass     pseudopotential
        Li             3.00     9.00000     Li( 1.00)
        O              6.00    16.00000     O ( 1.00)
        La            11.00   138.00000     La( 1.00)
        Zr            12.00    91.24000     Zr( 1.00)

      2 Sym. Ops., with inversion, found



   Cartesian axes

     site n.     atom                  positions (alat units)
         1           La  tau(   1) = (   0.5000000   0.7500000   0.6036186  )
         2           La  tau(   2) = (   0.5000000   0.7500000   0.1207237  )
         3           La  tau(   3) = (   0.0000000   0.7500000   0.8450661  )
         4           La  tau(   4) = (   0.0000000   0.7500000   0.3621712  )
         5           La  tau(   5) = (   0.5000000   0.2500000   0.3621712  )
         6           La  tau(   6) = (   0.5000000   0.2500000   0.8450661  )
         7           La  tau(   7) = (   0.0000000   0.2500000   0.1207237  )
         8           La  tau(   8) = (   0.0000000   0.2500000   0.6036186  )
         9           La  tau(   9) = (   0.2500000   0.8773000   0.4828949  )
        10           La  tau(  10) = (   0.7500000   0.8773000   0.0000000  )
        11           La  tau(  11) = (   0.1273000   0.5000000   0.7243424  )
        12           La  tau(  12) = (   0.8727000   0.5000000   0.2414475  )
        13           La  tau(  13) = (   0.7500000   0.1227000   0.4828949  )
        14           La  tau(  14) = (   0.2500000   0.1227000   0.0000000  )
        15           La  tau(  15) = (   0.2500000   0.6227000   0.0000000  )
        16           La  tau(  16) = (   0.7500000   0.6227000   0.4828949  )
        17           La  tau(  17) = (   0.1273000   0.0000000   0.2414475  )
        18           La  tau(  18) = (   0.8727000   0.0000000   0.7243424  )
        19           La  tau(  19) = (   0.7500000   0.3773000   0.0000000  )
        20           La  tau(  20) = (   0.2500000   0.3773000   0.4828949  )
        21           La  tau(  21) = (   0.6273000   0.0000000   0.2414475  )
        22           La  tau(  22) = (   0.3727000   0.0000000   0.7243424  )
        23           La  tau(  23) = (   0.6273000   0.5000000   0.7243424  )
        24           La  tau(  24) = (   0.3727000   0.5000000   0.2414475  )
        25           Zr  tau(  25) = (   0.2500000   0.7500000   0.7243424  )
        26           Zr  tau(  26) = (   0.7500000   0.7500000   0.2414475  )
        27           Zr  tau(  27) = (   0.0000000   0.5000000   0.0000000  )
        28           Zr  tau(  28) = (   0.0000000   0.5000000   0.4828949  )
        29           Zr  tau(  29) = (   0.7500000   0.2500000   0.2414475  )
        30           Zr  tau(  30) = (   0.2500000   0.2500000   0.7243424  )
        31           Zr  tau(  31) = (   0.2500000   0.7500000   0.2414475  )
        32           Zr  tau(  32) = (   0.7500000   0.7500000   0.7243424  )
        33           Zr  tau(  33) = (   0.0000000   0.0000000   0.4828949  )
        34           Zr  tau(  34) = (   0.0000000   0.0000000   0.0000000  )
        35           Zr  tau(  35) = (   0.7500000   0.2500000   0.7243424  )
        36           Zr  tau(  36) = (   0.2500000   0.2500000   0.2414475  )
        37           Zr  tau(  37) = (   0.5000000   0.0000000   0.4828949  )
        38           Zr  tau(  38) = (   0.5000000   0.0000000   0.0000000  )
        39           Zr  tau(  39) = (   0.5000000   0.5000000   0.0000000  )
        40           Zr  tau(  40) = (   0.5000000   0.5000000   0.4828949  )
        41           Li  tau(  41) = (   0.5000000   0.7500000   0.3621712  )
        42           Li  tau(  42) = (   0.5000000   0.7500000   0.8450661  )
        43           Li  tau(  43) = (   0.0000000   0.7500000   0.6036186  )
        44           Li  tau(  44) = (   0.0000000   0.7500000   0.1207237  )
        45           Li  tau(  45) = (   0.5000000   0.2500000   0.6036186  )
        46           Li  tau(  46) = (   0.5000000   0.2500000   0.1207237  )
        47           Li  tau(  47) = (   0.0000000   0.2500000   0.3621712  )
        48           Li  tau(  48) = (   0.0000000   0.2500000   0.8450661  )
        49           Li  tau(  49) = (   0.6774000   0.9274000   0.6036186  )
        50           Li  tau(  50) = (   0.3226000   0.9274000   0.1207237  )
        51           Li  tau(  51) = (   0.1774000   0.9274000   0.8450661  )
        52           Li  tau(  52) = (   0.8226000   0.9274000   0.3621712  )
        53           Li  tau(  53) = (   0.3226000   0.0726000   0.3621712  )
        54           Li  tau(  54) = (   0.6774000   0.0726000   0.8450661  )
        55           Li  tau(  55) = (   0.8226000   0.0726000   0.1207237  )
        56           Li  tau(  56) = (   0.1774000   0.0726000   0.6036186  )
        57           Li  tau(  57) = (   0.6774000   0.5726000   0.1207237  )
        58           Li  tau(  58) = (   0.3226000   0.5726000   0.6036186  )
        59           Li  tau(  59) = (   0.1774000   0.5726000   0.3621712  )
        60           Li  tau(  60) = (   0.8226000   0.5726000   0.8450661  )
        61           Li  tau(  61) = (   0.3226000   0.4274000   0.8450661  )
        62           Li  tau(  62) = (   0.6774000   0.4274000   0.3621712  )
        63           Li  tau(  63) = (   0.8226000   0.4274000   0.6036186  )
        64           Li  tau(  64) = (   0.1774000   0.4274000   0.1207237  )
        65           Li  tau(  65) = (   0.3370000   0.8300000   0.9127680  )
        66           Li  tau(  66) = (   0.6630000   0.8300000   0.4298730  )
        67           Li  tau(  67) = (   0.0800000   0.5870000   0.1884256  )
        68           Li  tau(  68) = (   0.9200000   0.5870000   0.6713205  )
        69           Li  tau(  69) = (   0.6630000   0.1700000   0.0530219  )
        70           Li  tau(  70) = (   0.3370000   0.1700000   0.5359168  )
        71           Li  tau(  71) = (   0.9200000   0.4130000   0.7773642  )
        72           Li  tau(  72) = (   0.0800000   0.4130000   0.2944693  )
        73           Li  tau(  73) = (   0.3370000   0.6700000   0.4298730  )
        74           Li  tau(  74) = (   0.6630000   0.6700000   0.9127680  )
        75           Li  tau(  75) = (   0.0800000   0.9130000   0.6713205  )
        76           Li  tau(  76) = (   0.9200000   0.9130000   0.1884256  )
        77           Li  tau(  77) = (   0.6630000   0.3300000   0.5359168  )
        78           Li  tau(  78) = (   0.3370000   0.3300000   0.0530219  )
        79           Li  tau(  79) = (   0.9200000   0.0870000   0.2944693  )
        80           Li  tau(  80) = (   0.0800000   0.0870000   0.7773642  )
        81           Li  tau(  81) = (   0.8370000   0.3300000   0.4298730  )
        82           Li  tau(  82) = (   0.1630000   0.3300000   0.9127680  )
        83           Li  tau(  83) = (   0.5800000   0.0870000   0.6713205  )
        84           Li  tau(  84) = (   0.4200000   0.0870000   0.1884256  )
        85           Li  tau(  85) = (   0.1630000   0.6700000   0.5359168  )
        86           Li  tau(  86) = (   0.8370000   0.6700000   0.0530219  )
        87           Li  tau(  87) = (   0.4200000   0.9130000   0.2944693  )
        88           Li  tau(  88) = (   0.5800000   0.9130000   0.7773642  )
        89           Li  tau(  89) = (   0.8370000   0.1700000   0.9127680  )
        90           Li  tau(  90) = (   0.1630000   0.1700000   0.4298730  )
        91           Li  tau(  91) = (   0.5800000   0.4130000   0.1884256  )
        92           Li  tau(  92) = (   0.4200000   0.4130000   0.6713205  )
        93           Li  tau(  93) = (   0.1630000   0.8300000   0.0530219  )
        94           Li  tau(  94) = (   0.8370000   0.8300000   0.5359168  )
        95           Li  tau(  95) = (   0.4200000   0.5870000   0.7773642  )
        96           Li  tau(  96) = (   0.5800000   0.5870000   0.2944693  )
        97           O   tau(  97) = (   0.3051000   0.7160000   0.5778320  )
        98           O   tau(  98) = (   0.6949000   0.7160000   0.0949371  )
        99           O   tau(  99) = (   0.9660000   0.5551000   0.8192795  )
       100           O   tau( 100) = (   0.0340000   0.5551000   0.3363846  )
       101           O   tau( 101) = (   0.6949000   0.2840000   0.3879578  )
       102           O   tau( 102) = (   0.3051000   0.2840000   0.8708527  )
       103           O   tau( 103) = (   0.0340000   0.4449000   0.1465103  )
       104           O   tau( 104) = (   0.9660000   0.4449000   0.6294052  )
       105           O   tau( 105) = (   0.3051000   0.7840000   0.0949371  )
       106           O   tau( 106) = (   0.6949000   0.7840000   0.5778320  )
       107           O   tau( 107) = (   0.9660000   0.9449000   0.3363846  )
       108           O   tau( 108) = (   0.0340000   0.9449000   0.8192795  )
       109           O   tau( 109) = (   0.6949000   0.2160000   0.8708527  )
       110           O   tau( 110) = (   0.3051000   0.2160000   0.3879578  )
       111           O   tau( 111) = (   0.0340000   0.0551000   0.6294052  )
       112           O   tau( 112) = (   0.9660000   0.0551000   0.1465103  )
       113           O   tau( 113) = (   0.8051000   0.2160000   0.0949371  )
       114           O   tau( 114) = (   0.1949000   0.2160000   0.5778320  )
       115           O   tau( 115) = (   0.4660000   0.0551000   0.3363846  )
       116           O   tau( 116) = (   0.5340000   0.0551000   0.8192795  )
       117           O   tau( 117) = (   0.1949000   0.7840000   0.8708527  )
       118           O   tau( 118) = (   0.8051000   0.7840000   0.3879578  )
       119           O   tau( 119) = (   0.5340000   0.9449000   0.6294052  )
       120           O   tau( 120) = (   0.4660000   0.9449000   0.1465103  )
       121           O   tau( 121) = (   0.8051000   0.2840000   0.5778320  )
       122           O   tau( 122) = (   0.1949000   0.2840000   0.0949371  )
       123           O   tau( 123) = (   0.4660000   0.4449000   0.8192795  )
       124           O   tau( 124) = (   0.5340000   0.4449000   0.3363846  )
       125           O   tau( 125) = (   0.1949000   0.7160000   0.3879578  )
       126           O   tau( 126) = (   0.8051000   0.7160000   0.8708527  )
       127           O   tau( 127) = (   0.5340000   0.5551000   0.1465103  )
       128           O   tau( 128) = (   0.4660000   0.5551000   0.6294052  )
       129           O   tau( 129) = (   0.1019000   0.8043000   0.2091901  )
       130           O   tau( 130) = (   0.8981000   0.8043000   0.6920850  )
       131           O   tau( 131) = (   0.0543000   0.3519000   0.4506375  )
       132           O   tau( 132) = (   0.9457000   0.3519000   0.9335324  )
       133           O   tau( 133) = (   0.8981000   0.1957000   0.7565997  )
       134           O   tau( 134) = (   0.1019000   0.1957000   0.2737048  )
       135           O   tau( 135) = (   0.9457000   0.6481000   0.5151523  )
       136           O   tau( 136) = (   0.0543000   0.6481000   0.0322574  )
       137           O   tau( 137) = (   0.1019000   0.6957000   0.6920850  )
       138           O   tau( 138) = (   0.8981000   0.6957000   0.2091901  )
       139           O   tau( 139) = (   0.0543000   0.1481000   0.9335324  )
       140           O   tau( 140) = (   0.9457000   0.1481000   0.4506375  )
       141           O   tau( 141) = (   0.8981000   0.3043000   0.2737048  )
       142           O   tau( 142) = (   0.1019000   0.3043000   0.7565997  )
       143           O   tau( 143) = (   0.9457000   0.8519000   0.0322574  )
       144           O   tau( 144) = (   0.0543000   0.8519000   0.5151523  )
       145           O   tau( 145) = (   0.6019000   0.3043000   0.6920850  )
       146           O   tau( 146) = (   0.3981000   0.3043000   0.2091901  )
       147           O   tau( 147) = (   0.5543000   0.8519000   0.9335324  )
       148           O   tau( 148) = (   0.4457000   0.8519000   0.4506375  )
       149           O   tau( 149) = (   0.3981000   0.6957000   0.2737048  )
       150           O   tau( 150) = (   0.6019000   0.6957000   0.7565997  )
       151           O   tau( 151) = (   0.4457000   0.1481000   0.0322574  )
       152           O   tau( 152) = (   0.5543000   0.1481000   0.5151523  )
       153           O   tau( 153) = (   0.6019000   0.1957000   0.2091901  )
       154           O   tau( 154) = (   0.3981000   0.1957000   0.6920850  )
       155           O   tau( 155) = (   0.5543000   0.6481000   0.4506375  )
       156           O   tau( 156) = (   0.4457000   0.6481000   0.9335324  )
       157           O   tau( 157) = (   0.3981000   0.8043000   0.7565997  )
       158           O   tau( 158) = (   0.6019000   0.8043000   0.2737048  )
       159           O   tau( 159) = (   0.4457000   0.3519000   0.5151523  )
       160           O   tau( 160) = (   0.5543000   0.3519000   0.0322574  )
       161           O   tau( 161) = (   0.2781000   0.8991000   0.2932138  )
       162           O   tau( 162) = (   0.7219000   0.8991000   0.7761087  )
       163           O   tau( 163) = (   0.1491000   0.5281000   0.5346612  )
       164           O   tau( 164) = (   0.8509000   0.5281000   0.0517663  )
       165           O   tau( 165) = (   0.7219000   0.1009000   0.6725760  )
       166           O   tau( 166) = (   0.2781000   0.1009000   0.1896811  )
       167           O   tau( 167) = (   0.8509000   0.4719000   0.4311286  )
       168           O   tau( 168) = (   0.1491000   0.4719000   0.9140235  )
       169           O   tau( 169) = (   0.2781000   0.6009000   0.7761087  )
       170           O   tau( 170) = (   0.7219000   0.6009000   0.2932138  )
       171           O   tau( 171) = (   0.1491000   0.9719000   0.0517663  )
       172           O   tau( 172) = (   0.8509000   0.9719000   0.5346612  )
       173           O   tau( 173) = (   0.7219000   0.3991000   0.1896811  )
       174           O   tau( 174) = (   0.2781000   0.3991000   0.6725760  )
       175           O   tau( 175) = (   0.8509000   0.0281000   0.9140235  )
       176           O   tau( 176) = (   0.1491000   0.0281000   0.4311286  )
       177           O   tau( 177) = (   0.7781000   0.3991000   0.7761087  )
       178           O   tau( 178) = (   0.2219000   0.3991000   0.2932138  )
       179           O   tau( 179) = (   0.6491000   0.0281000   0.0517663  )
       180           O   tau( 180) = (   0.3509000   0.0281000   0.5346612  )
       181           O   tau( 181) = (   0.2219000   0.6009000   0.1896811  )
       182           O   tau( 182) = (   0.7781000   0.6009000   0.6725760  )
       183           O   tau( 183) = (   0.3509000   0.9719000   0.9140235  )
       184           O   tau( 184) = (   0.6491000   0.9719000   0.4311286  )
       185           O   tau( 185) = (   0.7781000   0.1009000   0.2932138  )
       186           O   tau( 186) = (   0.2219000   0.1009000   0.7761087  )
       187           O   tau( 187) = (   0.6491000   0.4719000   0.5346612  )
       188           O   tau( 188) = (   0.3509000   0.4719000   0.0517663  )
       189           O   tau( 189) = (   0.2219000   0.8991000   0.6725760  )
       190           O   tau( 190) = (   0.7781000   0.8991000   0.1896811  )
       191           O   tau( 191) = (   0.3509000   0.5281000   0.4311286  )
       192           O   tau( 192) = (   0.6491000   0.5281000   0.9140235  )

     number of k points=     1  Fermi-Dirac smearing, width (Ry)=  0.0032
                       cart. coord. in units 2pi/alat
        k(    1) = (   0.0000000   0.0000000   0.0000000), wk =   2.0000000

     Dense  grid:   778941 G-vectors     FFT dimensions: ( 150, 150, 144)

     Estimated max dynamical RAM per process >     123.76 MB

     Estimated total dynamical RAM >      15.47 GB

     Atomic positions and unit cell read from directory:
     ./LLZO.save/
     Atomic positions from file used, from input discarded
 
     Cannot read rho : file not found

     Initial potential from superposition of free atoms

     starting charge    1199.4929, renormalised to    1200.0000
     Cannot read wfcs: file not found
     Starting wfcs are  896 randomized atomic wfcs

     total cpu time spent up to now is        9.3 secs

     Self-consistent Calculation

     iteration #  1     ecut=    85.00 Ry     beta= 0.20
     Davidson diagonalization with overlap
     ethr =  1.00E-05,  avg # of iterations = 95.0

     total cpu time spent up to now is      113.2 secs

     total energy              =   -7309.55827286 Ry
     estimated scf accuracy    <      48.62392994 Ry

     iteration #  2     ecut=    85.00 Ry     beta= 0.20
     Davidson diagonalization with overlap
     ethr =  4.05E-03,  avg # of iterations =  2.0

     total cpu time spent up to now is      119.9 secs

     total energy              =   -7308.29319084 Ry
     estimated scf accuracy    <       9.96949045 Ry

     iteration #  3     ecut=    85.00 Ry     beta= 0.20
     Davidson diagonalization with overlap
     ethr =  8.31E-04,  avg # of iterations =  7.0

     total cpu time spent up to now is      132.4 secs

     total energy              =   -7310.83329979 Ry
     estimated scf accuracy    <       1.33433306 Ry

     iteration #  4     ecut=    85.00 Ry     beta= 0.20
     Davidson diagonalization with overlap
     ethr =  1.11E-04,  avg # of iterations = 19.0

     total cpu time spent up to now is      149.7 secs

     total energy              =   -7311.16025466 Ry
     estimated scf accuracy    <       0.50991294 Ry

     iteration #  5     ecut=    85.00 Ry     beta= 0.20
     Davidson diagonalization with overlap
     c_bands:  2 eigenvalues not converged
     ethr =  4.25E-05,  avg # of iterations = 20.0

     total cpu time spent up to now is      168.9 secs

     total energy              =   -7311.11621417 Ry
     estimated scf accuracy    <       0.23017920 Ry

     iteration #  6     ecut=    85.00 Ry     beta= 0.20
     Davidson diagonalization with overlap
     ethr =  1.92E-05,  avg # of iterations = 10.0

     total cpu time spent up to now is      183.5 secs

     total energy              =   -7311.20658121 Ry
     estimated scf accuracy    <       0.05341717 Ry

     iteration #  7     ecut=    85.00 Ry     beta= 0.20
     Davidson diagonalization with overlap
     c_bands:  1 eigenvalues not converged
     ethr =  4.45E-06,  avg # of iterations = 60.0

     total cpu time spent up to now is      227.9 secs

     total energy              =   -7311.19986862 Ry
     estimated scf accuracy    <       0.02763473 Ry

     iteration #  8     ecut=    85.00 Ry     beta= 0.20
     Davidson diagonalization with overlap
     c_bands:  3 eigenvalues not converged
     ethr =  2.30E-06,  avg # of iterations = 20.0

     total cpu time spent up to now is      245.9 secs

     total energy              =   -7311.20797345 Ry
     estimated scf accuracy    <       0.00350519 Ry

     iteration #  9     ecut=    85.00 Ry     beta= 0.20
     Davidson diagonalization with overlap
     ethr =  2.92E-07,  avg # of iterations =  5.0

     total cpu time spent up to now is      254.5 secs

     total energy              =   -7311.20866131 Ry
     estimated scf accuracy    <       0.00024137 Ry

     iteration # 10     ecut=    85.00 Ry     beta= 0.20
     Davidson diagonalization with overlap
     c_bands:  4 eigenvalues not converged
     ethr =  2.01E-08,  avg # of iterations = 40.0

     total cpu time spent up to now is      288.2 secs

     total energy              =   -7311.20887470 Ry
     estimated scf accuracy    <       0.00006127 Ry

     iteration # 11     ecut=    85.00 Ry     beta= 0.20
     Davidson diagonalization with overlap
     ethr =  5.11E-09,  avg # of iterations =  9.0

     total cpu time spent up to now is      300.8 secs

     total energy              =   -7311.20880267 Ry
     estimated scf accuracy    <       0.00022918 Ry

     iteration # 12     ecut=    85.00 Ry     beta= 0.20
     Davidson diagonalization with overlap
     ethr =  5.11E-09,  avg # of iterations =  7.0

     total cpu time spent up to now is      313.0 secs

     total energy              =   -7311.20886377 Ry
     estimated scf accuracy    <       0.00001633 Ry

     iteration # 13     ecut=    85.00 Ry     beta= 0.20
     Davidson diagonalization with overlap
     c_bands:  1 eigenvalues not converged
     ethr =  1.36E-09,  avg # of iterations = 20.0

     total cpu time spent up to now is      331.0 secs

     total energy              =   -7311.20885626 Ry
     estimated scf accuracy    <       0.00002840 Ry

     iteration # 14     ecut=    85.00 Ry     beta= 0.20
     Davidson diagonalization with overlap
     ethr =  1.36E-09,  avg # of iterations =  4.0

     total cpu time spent up to now is      340.2 secs

     End of self-consistent calculation

          k = 0.0000 0.0000 0.0000 ( 97410 PWs)   bands (ev):

   -38.7953 -38.7953 -38.7953 -38.7953 -38.7953 -38.7953 -38.7953 -38.7952
   -38.7941 -38.7941 -38.7941 -38.7941 -38.7941 -38.7941 -38.7940 -38.7940
   -35.2724 -35.2723 -35.2723 -35.2722 -35.2709 -35.2709 -35.2708 -35.2708
   -35.2708 -35.2708 -35.2707 -35.2707 -35.2693 -35.2692 -35.2692 -35.2692
   -34.9695 -34.9688 -34.9688 -34.9686 -34.9683 -34.9682 -34.9681 -34.9680
   -34.9673 -34.9672 -34.9671 -34.9669 -34.9668 -34.9663 -34.9662 -34.9661
   -34.9545 -34.9544 -34.9543 -34.9542 -34.9542 -34.9541 -34.9541 -34.9540
   -34.9533 -34.9532 -34.9532 -34.9531 -34.9531 -34.9531 -34.9530 -34.9530
   -33.9426 -33.9426 -33.9426 -33.9426 -33.9426 -33.9426 -33.9426 -33.9426
   -21.8000 -21.7973 -21.7960 -21.7960 -21.7958 -21.7958 -21.7947 -21.7930
   -21.6184 -21.6184 -21.6151 -21.6114 -21.5858 -21.5849 -21.5832 -21.5824
   -21.5823 -21.5821 -21.5815 -21.5812 -21.5498 -21.5492 -21.5492 -21.5486
   -17.0920 -17.0917 -17.0915 -17.0914 -17.0913 -17.0911 -17.0909 -17.0908
   -17.0907 -17.0906 -17.0906 -17.0903 -17.0900 -17.0898 -17.0897 -17.0878
   -17.0651 -17.0651 -17.0642 -17.0640 -17.0639 -17.0635 -17.0634 -17.0628
   -17.0622 -17.0600 -17.0588 -17.0587 -17.0587 -17.0580 -17.0576 -17.0536
   -17.0339 -17.0337 -17.0329 -17.0328 -17.0323 -17.0318 -17.0317 -17.0315
   -17.0309 -17.0307 -17.0303 -17.0293 -17.0285 -17.0282 -17.0275 -17.0229
    -8.6976  -8.6974  -8.5667  -8.5491  -8.5488  -8.5330  -8.5328  -8.4877
    -8.4461  -8.4458  -8.3873  -8.3873  -8.3741  -8.3741  -8.3642  -8.3255
    -8.3250  -8.3079  -8.2516  -8.2516  -8.2418  -8.2415  -8.1158  -8.1057
    -8.0825  -8.0824  -8.0802  -8.0800  -8.0722  -8.0716  -8.0510  -8.0121
    -7.9894  -7.9839  -7.9709  -7.9708  -7.9701  -7.9612  -7.9611  -7.9359
    -7.9359  -7.9078  -7.9074  -7.9033  -7.9032  -7.8819  -7.8818  -7.8479
    -7.8475  -7.8470  -7.8364  -7.7684  -7.7681  -7.6944  -7.6716  -7.6712
    -7.6647  -7.6534  -7.6533  -7.6492  -7.6002  -7.6002  -7.5993  -7.5992
    -7.5991  -7.5536  -7.5535  -7.5387  -7.5036  -7.5035  -7.4736  -7.4736
    -7.4553  -7.4547  -7.4516  -7.3722  -7.3713  -7.3463  -7.3132  -7.2892
    -7.2885  -7.2824  -7.2822  -7.2743  -7.2294  -7.2290  -7.2132  -7.1804
    -7.1804  -7.1756  -7.1755  -7.1195  -7.1194  -7.0885  -7.0883  -6.9830
    -5.3357  -5.3357  -5.3245  -5.3244  -5.2927  -5.2926  -5.2877  -5.2877
    -5.2791  -5.2790  -5.2654  -5.2653  -5.2520  -5.2313  -5.2312  -5.2095
    -5.2093  -5.1994  -5.1515  -5.1466  -5.1464  -5.1131  -5.1129  -5.1098
    -5.1097  -5.0839  -5.0839  -5.0802  -5.0799  -5.0709  -5.0444  -5.0443
    -5.0010  -4.9364  -4.9338  -4.9337  -4.9282  -4.8668  -4.8319  -4.8319
    -4.8213  -4.8205  -4.8103  -4.7724  -4.7439  -4.6843  -4.6812  -4.6805
    -4.6738  -4.6619  -4.6615  -4.6316  -4.6310  -4.6212  -4.6211  -4.6108
    -4.6107  -4.5723  -4.5717  -4.5066  -4.5065  -4.4991  -4.4707  -4.4705
    -4.4670  -4.4604  -4.4600  -4.4188  -4.4183  -4.3119  -4.2914  -4.2912
     4.5394   4.7487   4.7489   4.8431   4.8463   4.8466   4.8531   4.8918
     4.9307   4.9314   4.9317   4.9661   4.9712   4.9712   5.0305   5.0306
     5.0343   5.0345   5.1093   5.1093   5.1460   5.1768   5.1769   5.2041
     5.2043   5.2528   5.2529   5.2547   5.2548   5.3063   5.3069   5.3071
     5.3167   5.3171   5.3202   5.3203   5.3429   5.3847   5.3863   5.3864
     5.3902   5.3902   5.4009   5.4146   5.4147   5.4150   5.4165   5.4168
     5.4618   5.4619   5.4764   5.4767   5.5452   5.5499   5.5501   5.5558
     5.5559   5.5580   5.5632   5.5995   5.6000   5.6154   5.6155   5.6200
     5.6203   5.6379   5.7018   5.7018   5.7117   5.7118   5.7151   5.7151
     5.7188   5.7350   5.7474   5.7478   5.7597   5.7625   5.7626   5.7830
     5.7832   5.7839   5.7839   5.7843   5.7849   5.7866   5.7866   5.7880
     5.8031   5.8097   5.8100   5.8231   5.8307   5.8310   5.8908   5.8908
     5.8923   5.8979   5.9104   5.9342   5.9344   5.9625   5.9727   5.9729
     5.9866   5.9896   6.0194   6.0195   6.0457   6.0552   6.0572   6.0643
     6.0647   6.0906   6.1677   6.1677   6.2049   6.2400   6.2401   6.2663
     6.2665   6.2834   6.2839   6.3121   6.3445   6.3446   6.3650   6.3655
     6.3927   6.3927   6.3953   6.3953   6.4209   6.4211   6.4283   6.4318
     6.4456   6.4456   6.4698   6.4701   6.4892   6.4893   6.4970   6.5149
     6.5151   6.5779   6.5779   6.5790   6.5943   6.6124   6.6126   6.6390
     6.6396   6.6529   6.6532   6.6573   6.6576   6.7231   6.7302   6.7579
     6.7581   6.7915   6.7916   6.7939   6.8102   6.8104   6.8207   6.8209
     6.8826   6.8830   6.8838   6.8877   6.9096   6.9607   6.9611   6.9756
     6.9761   6.9797   6.9801   7.0169   7.0172   7.0474   7.0480   7.1205
     7.1209   7.1317   7.1393   7.1528   7.1531   7.1541   7.1542   7.1667
     7.1992   7.1992   7.2023   7.2025   7.2065   7.2212   7.2217   7.2227
     7.2227   7.2364   7.2368   7.2415   7.2902   7.2910   7.2953   7.2955
     7.2985   7.3031   7.3139   7.3450   7.3452   7.3511   7.3513   7.3555
     7.3561   7.3633   7.3635   7.3653   7.3763   7.3766   7.3856   7.3860
     7.4187   7.4190   7.4233   7.4237   7.4311   7.4694   7.4698   7.4766
     7.4909   7.5197   7.5204   7.5366   7.5394   7.5395   7.5558   7.5561
     7.5572   7.5572   7.5990   7.5995   7.6026   7.6028   7.6149   7.6418
     7.6421   7.6469   7.6689   7.6691   7.6710   7.6711   7.6851   7.6901
     7.6904   7.7480   7.7499   7.7500   7.7725   7.7727   7.7818   7.7845
     7.7854   7.7859   7.7870   7.8359   7.8444   7.8446   7.8563   7.8564
     7.8626   7.8630   7.8635   7.8642   7.8643   7.8644   7.8790   7.8795
     7.8872   7.8877   7.9256   7.9311   7.9773   7.9810   7.9850   7.9850
    12.3522  12.5077  12.5081  12.5108  12.5548  12.5612  12.5892  12.5894
    12.6234  12.6234  12.6477  12.6482  12.6769  12.6898  12.6909  12.7046
    12.7049  12.7139  12.7146  12.7327  12.7332  12.7335  12.7343  12.7536
    12.7538  12.7885  12.7893  12.7959  12.8193  12.8251  12.8463  12.8465
    12.8653  12.8660  12.8702  12.8985  12.8988  12.9149  12.9151  12.9455
    12.9458  12.9468  12.9742  12.9743  12.9926  12.9982  13.0789  13.0791
    13.0847  13.1120  13.1125  13.1209  13.1210  13.1314  13.1369  13.1370
    13.1476  13.1482  13.1485  13.1551  13.1552  13.1835  13.1838  13.1918
    13.1924  13.2051  13.2055  13.2063  13.2164  13.2166  13.2208  13.2210
    13.2215  13.2259  13.2315  13.2320  13.2481  13.2484  13.2492  13.2553
    13.2740  13.2746  13.2845  13.2846  13.2987  13.2990  13.3112  13.3114
    13.3129  13.3134  13.3203  13.3208  13.3298  13.3301  13.3301  13.3335
    13.3406  13.3433  13.3737  13.3741  13.3744  13.3747  13.3752  13.3795
    13.3816  13.3851  13.3854  13.4003  13.4005  13.4078  13.4122  13.4131
    13.4147  13.4209  13.4227  13.4231  13.4242  13.4250  13.4313  13.4341

     the Fermi energy is    10.5468 ev

!    total energy              =   -7311.20886114 Ry
     estimated scf accuracy    <       0.00000043 Ry
     smearing contrib. (-TS)   =       0.00000000 Ry
     internal energy E=F+TS    =   -7311.20886114 Ry

     The total energy is F=E-TS. E is the sum of the following terms:
     one-electron contribution =   -1530.02549261 Ry
     hartree contribution      =    1394.52041063 Ry
     xc contribution           =   -1726.91099412 Ry
     ewald contribution        =   -5448.79278504 Ry

     convergence has been achieved in  14 iterations

     Forces acting on atoms (cartesian axes, Ry/au):

     atom    1 type  3   force =    -0.00000093   -0.00000082   -0.00000397
     atom    2 type  3   force =    -0.00000014   -0.00000078   -0.00000456
     atom    3 type  3   force =     0.00000085   -0.00000120    0.00000439
     atom    4 type  3   force =    -0.00000008    0.00000004    0.00000438
     atom    5 type  3   force =     0.00000093    0.00000082    0.00000397
     atom    6 type  3   force =     0.00000014    0.00000078    0.00000456
     atom    7 type  3   force =    -0.00000085    0.00000120   -0.00000439
     atom    8 type  3   force =     0.00000008   -0.00000004   -0.00000438
     atom    9 type  3   force =    -0.00000017    0.00008532   -0.00000100
     atom   10 type  3   force =     0.00000014    0.00008550   -0.00000031
     atom   11 type  3   force =     0.00009064    0.00000063    0.00000051
     atom   12 type  3   force =    -0.00009064   -0.00000063   -0.00000051
     atom   13 type  3   force =     0.00000017   -0.00008532    0.00000100
     atom   14 type  3   force =    -0.00000014   -0.00008550    0.00000031
     atom   15 type  3   force =     0.00000016   -0.00008552    0.00000017
     atom   16 type  3   force =     0.00000014   -0.00008643   -0.00000049
     atom   17 type  3   force =     0.00009099   -0.00000083    0.00000014
     atom   18 type  3   force =    -0.00009099    0.00000083   -0.00000014
     atom   19 type  3   force =    -0.00000016    0.00008552   -0.00000017
     atom   20 type  3   force =    -0.00000014    0.00008643    0.00000049
     atom   21 type  3   force =     0.00009062    0.00000078    0.00000002
     atom   22 type  3   force =    -0.00009062   -0.00000078   -0.00000002
     atom   23 type  3   force =     0.00009164   -0.00000023    0.00000008
     atom   24 type  3   force =    -0.00009164    0.00000023   -0.00000008
     atom   25 type  4   force =     0.00000082   -0.00000058    0.00000027
     atom   26 type  4   force =    -0.00000006   -0.00000061    0.00000098
     atom   27 type  4   force =     0.00000000    0.00000000    0.00000000
     atom   28 type  4   force =     0.00000000    0.00000000    0.00000000
     atom   29 type  4   force =    -0.00000082    0.00000058   -0.00000027
     atom   30 type  4   force =     0.00000006    0.00000061   -0.00000098
     atom   31 type  4   force =    -0.00000028    0.00000010   -0.00000071
     atom   32 type  4   force =     0.00000015   -0.00000031    0.00000020
     atom   33 type  4   force =     0.00000000    0.00000000    0.00000000
     atom   34 type  4   force =     0.00000000    0.00000000    0.00000000
     atom   35 type  4   force =     0.00000028   -0.00000010    0.00000071
     atom   36 type  4   force =    -0.00000015    0.00000031   -0.00000020
     atom   37 type  4   force =     0.00000000    0.00000000    0.00000000
     atom   38 type  4   force =     0.00000000    0.00000000    0.00000000
     atom   39 type  4   force =     0.00000000    0.00000000    0.00000000
     atom   40 type  4   force =     0.00000000    0.00000000    0.00000000
     atom   41 type  1   force =     0.00000011    0.00000003    0.00000260
     atom   42 type  1   force =    -0.00000019   -0.00000023    0.00000233
     atom   43 type  1   force =     0.00000035    0.00000023   -0.00000233
     atom   44 type  1   force =    -0.00000018   -0.00000033   -0.00000204
     atom   45 type  1   force =    -0.00000011   -0.00000003   -0.00000260
     atom   46 type  1   force =     0.00000019    0.00000023   -0.00000233
     atom   47 type  1   force =    -0.00000035   -0.00000023    0.00000233
     atom   48 type  1   force =     0.00000018    0.00000033    0.00000204
     atom   49 type  1   force =    -0.00009414   -0.00008071   -0.00000010
     atom   50 type  1   force =     0.00009418   -0.00008083   -0.00000018
     atom   51 type  1   force =    -0.00009445   -0.00008110    0.00000025
     atom   52 type  1   force =     0.00009453   -0.00008101    0.00000026
     atom   53 type  1   force =     0.00009414    0.00008071    0.00000010
     atom   54 type  1   force =    -0.00009418    0.00008083    0.00000018
     atom   55 type  1   force =     0.00009445    0.00008110   -0.00000025
     atom   56 type  1   force =    -0.00009453    0.00008101   -0.00000026
     atom   57 type  1   force =    -0.00009458    0.00008075   -0.00000029
     atom   58 type  1   force =     0.00009422    0.00008094   -0.00000027
     atom   59 type  1   force =    -0.00009401    0.00008078    0.00000023
     atom   60 type  1   force =     0.00009426    0.00008070    0.00000014
     atom   61 type  1   force =     0.00009458   -0.00008075    0.00000029
     atom   62 type  1   force =    -0.00009422   -0.00008094    0.00000027
     atom   63 type  1   force =     0.00009401   -0.00008078   -0.00000023
     atom   64 type  1   force =    -0.00009426   -0.00008070   -0.00000014
     atom   65 type  1   force =     0.00015699    0.00022746   -0.00005638
     atom   66 type  1   force =    -0.00015688    0.00022764   -0.00005652
     atom   67 type  1   force =     0.00019993    0.00015640   -0.00005077
     atom   68 type  1   force =    -0.00019974    0.00015652   -0.00005035
     atom   69 type  1   force =    -0.00015699   -0.00022746    0.00005638
     atom   70 type  1   force =     0.00015688   -0.00022764    0.00005652
     atom   71 type  1   force =    -0.00019993   -0.00015640    0.00005077
     atom   72 type  1   force =     0.00019974   -0.00015652    0.00005035
     atom   73 type  1   force =     0.00015715   -0.00022821   -0.00005645
     atom   74 type  1   force =    -0.00015721   -0.00022737   -0.00005622
     atom   75 type  1   force =     0.00019885   -0.00015620   -0.00005046
     atom   76 type  1   force =    -0.00019994   -0.00015622   -0.00005025
     atom   77 type  1   force =    -0.00015715    0.00022821    0.00005645
     atom   78 type  1   force =     0.00015721    0.00022737    0.00005622
     atom   79 type  1   force =    -0.00019885    0.00015620    0.00005046
     atom   80 type  1   force =     0.00019994    0.00015622    0.00005025
     atom   81 type  1   force =     0.00015721    0.00022774   -0.00005635
     atom   82 type  1   force =    -0.00015711    0.00022745   -0.00005642
     atom   83 type  1   force =     0.00019987    0.00015687   -0.00005045
     atom   84 type  1   force =    -0.00020047    0.00015677   -0.00005048
     atom   85 type  1   force =    -0.00015721   -0.00022774    0.00005635
     atom   86 type  1   force =     0.00015711   -0.00022745    0.00005642
     atom   87 type  1   force =    -0.00019987   -0.00015687    0.00005045
     atom   88 type  1   force =     0.00020047   -0.00015677    0.00005048
     atom   89 type  1   force =     0.00015701   -0.00022711   -0.00005621
     atom   90 type  1   force =    -0.00015719   -0.00022805   -0.00005611
     atom   91 type  1   force =     0.00019978   -0.00015628   -0.00005062
     atom   92 type  1   force =    -0.00019926   -0.00015630   -0.00005039
     atom   93 type  1   force =    -0.00015701    0.00022711    0.00005621
     atom   94 type  1   force =     0.00015719    0.00022805    0.00005611
     atom   95 type  1   force =    -0.00019978    0.00015628    0.00005062
     atom   96 type  1   force =     0.00019926    0.00015630    0.00005039
     atom   97 type  2   force =    -0.00011889    0.00001136    0.00019583
     atom   98 type  2   force =     0.00012028    0.00001322    0.00019918
     atom   99 type  2   force =     0.00001201   -0.00011034    0.00019653
     atom  100 type  2   force =    -0.00001101   -0.00011582    0.00019634
     atom  101 type  2   force =     0.00011889   -0.00001136   -0.00019583
     atom  102 type  2   force =    -0.00012028   -0.00001322   -0.00019918
     atom  103 type  2   force =    -0.00001201    0.00011034   -0.00019653
     atom  104 type  2   force =     0.00001101    0.00011582   -0.00019634
     atom  105 type  2   force =    -0.00011890   -0.00001279    0.00020010
     atom  106 type  2   force =     0.00011961   -0.00001221    0.00020037
     atom  107 type  2   force =     0.00001712    0.00011032    0.00019395
     atom  108 type  2   force =    -0.00001308    0.00011376    0.00019380
     atom  109 type  2   force =     0.00011890    0.00001279   -0.00020010
     atom  110 type  2   force =    -0.00011961    0.00001221   -0.00020037
     atom  111 type  2   force =    -0.00001712   -0.00011032   -0.00019395
     atom  112 type  2   force =     0.00001308   -0.00011376   -0.00019380
     atom  113 type  2   force =    -0.00011558    0.00001342    0.00019830
     atom  114 type  2   force =     0.00012069    0.00001567    0.00019903
     atom  115 type  2   force =     0.00001658   -0.00011270    0.00019339
     atom  116 type  2   force =    -0.00001716   -0.00011079    0.00019467
     atom  117 type  2   force =     0.00011558   -0.00001342   -0.00019830
     atom  118 type  2   force =    -0.00012069   -0.00001567   -0.00019903
     atom  119 type  2   force =    -0.00001658    0.00011270   -0.00019339
     atom  120 type  2   force =     0.00001716    0.00011079   -0.00019467
     atom  121 type  2   force =    -0.00011807   -0.00001437    0.00019973
     atom  122 type  2   force =     0.00011905   -0.00001428    0.00019616
     atom  123 type  2   force =     0.00001757    0.00011370    0.00019446
     atom  124 type  2   force =    -0.00001371    0.00011280    0.00019440
     atom  125 type  2   force =     0.00011807    0.00001437   -0.00019973
     atom  126 type  2   force =    -0.00011905    0.00001428   -0.00019616
     atom  127 type  2   force =    -0.00001757   -0.00011370   -0.00019446
     atom  128 type  2   force =     0.00001371   -0.00011280   -0.00019440
     atom  129 type  2   force =     0.00007843    0.00007594    0.00008256
     atom  130 type  2   force =    -0.00008078    0.00007517    0.00008402
     atom  131 type  2   force =     0.00007284    0.00006500    0.00008743
     atom  132 type  2   force =    -0.00007784    0.00006554    0.00008540
     atom  133 type  2   force =    -0.00007843   -0.00007594   -0.00008256
     atom  134 type  2   force =     0.00008078   -0.00007517   -0.00008402
     atom  135 type  2   force =    -0.00007284   -0.00006500   -0.00008743
     atom  136 type  2   force =     0.00007784   -0.00006554   -0.00008540
     atom  137 type  2   force =     0.00007700   -0.00007829    0.00007944
     atom  138 type  2   force =    -0.00007619   -0.00007632    0.00008018
     atom  139 type  2   force =     0.00007475   -0.00006159    0.00008740
     atom  140 type  2   force =    -0.00007349   -0.00005819    0.00008813
     atom  141 type  2   force =    -0.00007700    0.00007829   -0.00007944
     atom  142 type  2   force =     0.00007619    0.00007632   -0.00008018
     atom  143 type  2   force =    -0.00007475    0.00006159   -0.00008740
     atom  144 type  2   force =     0.00007349    0.00005819   -0.00008813
     atom  145 type  2   force =     0.00007812    0.00007240    0.00008101
     atom  146 type  2   force =    -0.00008095    0.00007158    0.00007707
     atom  147 type  2   force =     0.00007233    0.00006019    0.00008581
     atom  148 type  2   force =    -0.00007295    0.00005986    0.00008943
     atom  149 type  2   force =    -0.00007812   -0.00007240   -0.00008101
     atom  150 type  2   force =     0.00008095   -0.00007158   -0.00007707
     atom  151 type  2   force =    -0.00007233   -0.00006019   -0.00008581
     atom  152 type  2   force =     0.00007295   -0.00005986   -0.00008943
     atom  153 type  2   force =     0.00007577   -0.00007587    0.00007987
     atom  154 type  2   force =    -0.00007633   -0.00007485    0.00008102
     atom  155 type  2   force =     0.00007651   -0.00006410    0.00008394
     atom  156 type  2   force =    -0.00007422   -0.00006253    0.00008717
     atom  157 type  2   force =    -0.00007577    0.00007587   -0.00007987
     atom  158 type  2   force =     0.00007633    0.00007485   -0.00008102
     atom  159 type  2   force =    -0.00007651    0.00006410   -0.00008394
     atom  160 type  2   force =     0.00007422    0.00006253   -0.00008717
     atom  161 type  2   force =    -0.00016325   -0.00000881    0.00019944
     atom  162 type  2   force =     0.00016630   -0.00000526    0.00019853
     atom  163 type  2   force =    -0.00000381   -0.00016907    0.00020086
     atom  164 type  2   force =     0.00000178   -0.00016896    0.00019497
     atom  165 type  2   force =     0.00016325    0.00000881   -0.00019944
     atom  166 type  2   force =    -0.00016630    0.00000526   -0.00019853
     atom  167 type  2   force =     0.00000381    0.00016907   -0.00020086
     atom  168 type  2   force =    -0.00000178    0.00016896   -0.00019497
     atom  169 type  2   force =    -0.00016498    0.00000667    0.00020021
     atom  170 type  2   force =     0.00015983    0.00000706    0.00019869
     atom  171 type  2   force =    -0.00000381    0.00016851    0.00019754
     atom  172 type  2   force =    -0.00000056    0.00017069    0.00019788
     atom  173 type  2   force =     0.00016498   -0.00000667   -0.00020021
     atom  174 type  2   force =    -0.00015983   -0.00000706   -0.00019869
     atom  175 type  2   force =     0.00000381   -0.00016851   -0.00019754
     atom  176 type  2   force =     0.00000056   -0.00017069   -0.00019788
     atom  177 type  2   force =    -0.00016204   -0.00000943    0.00019969
     atom  178 type  2   force =     0.00016424   -0.00000793    0.00020200
     atom  179 type  2   force =    -0.00000280   -0.00016687    0.00019396
     atom  180 type  2   force =     0.00000134   -0.00016711    0.00020109
     atom  181 type  2   force =     0.00016204    0.00000943   -0.00019969
     atom  182 type  2   force =    -0.00016424    0.00000793   -0.00020200
     atom  183 type  2   force =     0.00000280    0.00016687   -0.00019396
     atom  184 type  2   force =    -0.00000134    0.00016711   -0.00020109
     atom  185 type  2   force =    -0.00016329    0.00000725    0.00020005
     atom  186 type  2   force =     0.00016059    0.00001054    0.00020074
     atom  187 type  2   force =     0.00000040    0.00016653    0.00020024
     atom  188 type  2   force =    -0.00000137    0.00016650    0.00019587
     atom  189 type  2   force =     0.00016329   -0.00000725   -0.00020005
     atom  190 type  2   force =    -0.00016059   -0.00001054   -0.00020074
     atom  191 type  2   force =    -0.00000040   -0.00016653   -0.00020024
     atom  192 type  2   force =     0.00000137   -0.00016650   -0.00019587

     Total force =     0.002664     Total SCF correction =     0.000945
     SCF correction compared to forces is large: reduce conv_thr to get better values


     Computing stress (Cartesian axis) and pressure

          total   stress  (Ry/bohr**3)                   (kbar)     P=       -0.24
  -0.00000132   0.00000000  -0.00000000           -0.19        0.00       -0.00
   0.00000000  -0.00000134  -0.00000000            0.00       -0.20       -0.00
  -0.00000000  -0.00000000  -0.00000228           -0.00       -0.00       -0.34


     BFGS Geometry Optimization
     Energy error            =      0.0E+00 Ry
     Gradient error          =      2.3E-04 Ry/Bohr
     Cell gradient error     =      3.4E-01 kbar

     bfgs converged in   1 scf cycles and   0 bfgs steps
     (criteria: energy <  1.0E-04 Ry, force <  1.0E-03Ry/Bohr, cell <  5.0E-01kbar)

     End of BFGS Geometry Optimization

     Final enthalpy           =   -7311.2088611363 Ry
Begin final coordinates
     new unit-cell volume =  14833.02738 a.u.^3 (  2198.02788 Ang^3 )
     density =      5.14613 g/cm^3

CELL_PARAMETERS (bohr)
  24.917636468   0.000000000   0.000000000
   0.000000000  24.919198781   0.000000000
   0.000000000   0.000000000  23.888499882

ATOMIC_POSITIONS (crystal)
La            0.4999999993        0.7499999997        0.6249957369
La            0.4999999987        0.7500000088        0.1249957467
La           -0.0000000045        0.7499999958        0.8750042329
La           -0.0000000011        0.7499999892        0.3750042289
La            0.5000000007        0.2500000003        0.3750042631
La            0.5000000013        0.2499999912        0.8750042533
La            0.0000000045        0.2500000042        0.1249957671
La            0.0000000011        0.2500000108        0.6249957711
La            0.2499999950        0.8781968795        0.5000000011
La            0.7500000058        0.8781968887       -0.0000000123
La            0.1282019247        0.4999999904        0.7500000152
La            0.8717980753        0.5000000096        0.2499999848
La            0.7500000050        0.1218031205        0.4999999989
La            0.2499999942        0.1218031113        0.0000000123
La            0.2499999779        0.6218031333        0.0000000002
La            0.7499999755        0.6218031308        0.4999999753
La            0.1282019200        0.0000000241        0.2499999917
La            0.8717980800       -0.0000000241        0.7500000083
La            0.7500000221        0.3781968667       -0.0000000002
La            0.2500000245        0.3781968692        0.5000000247
La            0.6282019046        0.0000000063        0.2500000002
La            0.3717980954       -0.0000000063        0.7499999998
La            0.6282019144        0.4999999447        0.7499999795
La            0.3717980856        0.5000000553        0.2500000205
Zr            0.2500000136        0.7500000009        0.7500000158
Zr            0.7499999934        0.7500000327        0.2499999772
Zr            0.0000000000        0.5000000000        0.0000000000
Zr            0.0000000000        0.5000000000        0.5000000000
Zr            0.7499999864        0.2499999991        0.2499999842
Zr            0.2500000066        0.2499999673        0.7500000228
Zr            0.2499999819        0.7500000200        0.2499999855
Zr            0.7500000066        0.7499999571        0.7499999889
Zr            0.0000000000        0.0000000000        0.5000000000
Zr            0.0000000000        0.0000000000        0.0000000000
Zr            0.7500000181        0.2499999800        0.7500000145
Zr            0.2499999934        0.2500000429        0.2500000111
Zr            0.5000000000        0.0000000000        0.5000000000
Zr            0.5000000000        0.0000000000        0.0000000000
Zr            0.5000000000        0.5000000000        0.0000000000
Zr            0.5000000000        0.5000000000        0.5000000000
Li            0.4999999800        0.7499999850        0.3749946982
Li            0.5000000201        0.7500000216        0.8749947139
Li            0.0000000232        0.7500000068        0.6250052720
Li           -0.0000000006        0.7500000379        0.1250052420
Li            0.5000000200        0.2500000150        0.6250053018
Li            0.4999999799        0.2499999784        0.1250052861
Li           -0.0000000232        0.2499999932        0.3749947280
Li            0.0000000006        0.2499999621        0.8749947580
Li            0.6783769347        0.9283814513        0.6250038558
Li            0.3216230554        0.9283814564        0.1250038432
Li            0.1783769238        0.9283814762        0.8749961251
Li            0.8216230725        0.9283814495        0.3749961585
Li            0.3216230653        0.0716185487        0.3749961442
Li            0.6783769446        0.0716185436        0.8749961568
Li            0.8216230762        0.0716185238        0.1250038749
Li            0.1783769275        0.0716185505        0.6250038415
Li            0.6783769470        0.5716185615        0.1250038656
Li            0.3216230899        0.5716185471        0.6250038768
Li            0.1783769417        0.5716185372        0.3749961537
Li            0.8216230643        0.5716184741        0.8749961361
Li            0.3216230530        0.4283814385        0.8749961344
Li            0.6783769101        0.4283814529        0.3749961232
Li            0.8216230583        0.4283814628        0.6250038463
Li            0.1783769357        0.4283815259        0.1250038639
Li            0.3359763419        0.8313815483        0.9438983455
Li            0.6640236376        0.8313815544        0.4438983250
Li            0.0813689371        0.5859646608        0.1938972978
Li            0.9186310374        0.5859646051        0.6938972932
Li            0.6640236581        0.1686184517        0.0561016545
Li            0.3359763624        0.1686184456        0.5561016750
Li            0.9186310629        0.4140353392        0.8061027022
Li            0.0813689626        0.4140353949        0.3061027068
Li            0.3359763134        0.6686184656        0.4438983499
Li            0.6640236280        0.6686184234        0.9438983087
Li            0.0813689768        0.9140353555        0.6938972971
Li            0.9186310420        0.9140353336        0.1938973305
Li            0.6640236866        0.3313815344        0.5561016501
Li            0.3359763720        0.3313815766        0.0561016913
Li            0.9186310232        0.0859646445        0.3061027029
Li            0.0813689580        0.0859646664        0.8061026695
Li            0.8359763789        0.3313815638        0.4438982851
Li            0.1640236535        0.3313815234        0.9438983677
Li            0.5813689747        0.0859646298        0.6938973096
Li            0.4186310367        0.0859646291        0.1938973097
Li            0.1640236211        0.6686184362        0.5561017149
Li            0.8359763465        0.6686184766        0.0561016323
Li            0.4186310253        0.9140353702        0.3061026904
Li            0.5813689633        0.9140353709        0.8061026903
Li            0.8359763406        0.1686184598        0.9438983667
Li            0.1640236836        0.1686184853        0.4438983180
Li            0.5813689356        0.4140353326        0.1938972700
Li            0.4186310186        0.4140353748        0.6938973389
Li            0.1640236594        0.8313815402        0.0561016333
Li            0.8359763164        0.8313815147        0.5561016820
Li            0.4186310644        0.5859646674        0.8061027300
Li            0.5813689814        0.5859646252        0.3061026611
O             0.3051519831        0.7151227298        0.5964579605
O             0.6948480005        0.7151227659        0.0964579275
O             0.9651553220        0.5551022356        0.8464504601
O             0.0348446933        0.5551022505        0.3464504631
O             0.6948480169        0.2848772702        0.4035420395
O             0.3051519995        0.2848772341        0.9035420725
O             0.0348446780        0.4448977644        0.1535495399
O             0.9651553067        0.4448977495        0.6535495369
O             0.3051519943        0.7848772535        0.0964579355
O             0.6948479556        0.7848772518        0.5964579523
O             0.9651552917        0.9448977621        0.3464504787
O             0.0348447029        0.9448977819        0.8464504600
O             0.6948480057        0.2151227465        0.9035420645
O             0.3051520444        0.2151227482        0.4035420477
O             0.0348447083        0.0551022379        0.6535495213
O             0.9651552971        0.0551022181        0.1535495400
O             0.8051520117        0.2151227323        0.0964579571
O             0.1948480123        0.2151227873        0.5964579454
O             0.4651553065        0.0551022293        0.3464504716
O             0.5348447309        0.0551022142        0.8464504670
O             0.1948479883        0.7848772677        0.9035420429
O             0.8051519877        0.7848772127        0.4035420546
O             0.5348446935        0.9448977707        0.6535495284
O             0.4651552691        0.9448977858        0.1535495330
O             0.8051520041        0.2848772461        0.5964579830
O             0.1948480055        0.2848772750        0.0964579807
O             0.4651552928        0.4448977578        0.8464504936
O             0.5348447160        0.4448977972        0.3464504703
O             0.1948479959        0.7151227539        0.4035420170
O             0.8051519945        0.7151227250        0.9035420193
O             0.5348447072        0.5551022422        0.1535495064
O             0.4651552840        0.5551022028        0.6535495297
O             0.1031107980        0.8043209775        0.2155192515
O             0.8968891992        0.8043209482        0.7155192356
O             0.0542668731        0.3531067003        0.4655252599
O             0.9457330909        0.3531067144        0.9655252566
O             0.8968892020        0.1956790225        0.7844807485
O             0.1031108008        0.1956790518        0.2844807644
O             0.9457331269        0.6468932997        0.5344747401
O             0.0542669091        0.6468932856        0.0344747434
O             0.1031108150        0.6956790114        0.7155192776
O             0.8968892186        0.6956791202        0.2155192578
O             0.0542669577        0.1468933060        0.9655253326
O             0.9457330253        0.1468932794        0.4655252736
O             0.8968891850        0.3043209886        0.2844807224
O             0.1031107814        0.3043208798        0.7844807422
O             0.9457330423        0.8531066940        0.0344746674
O             0.0542669747        0.8531067206        0.5344747264
O             0.6031108172        0.3043209735        0.7155192706
O             0.3968891868        0.3043210037        0.2155192948
O             0.5542668863        0.8531067056        0.9655252766
O             0.4457330751        0.8531066909        0.4655252710
O             0.3968891828        0.6956790265        0.2844807294
O             0.6031108132        0.6956789963        0.7844807052
O             0.4457331137        0.1468932944        0.0344747234
O             0.5542669249        0.1468933091        0.5344747290
O             0.6031107856        0.1956790441        0.2155192714
O             0.3968892136        0.1956790030        0.7155193002
O             0.5542669258        0.6468932856        0.4655252444
O             0.4457331259        0.6468933065        0.9655252677
O             0.3968892144        0.8043209559        0.7844807286
O             0.6031107864        0.8043209970        0.2844806998
O             0.4457330742        0.3531067144        0.5344747556
O             0.5542668741        0.3531066935        0.0344747323
O             0.2774927618        0.9000658149        0.3032726145
O             0.7225072572        0.9000657456        0.8032726881
O             0.1500894665        0.5274586197        0.5532628099
O             0.8499105378        0.5274586694        0.0532628003
O             0.7225072382        0.0999341851        0.6967273855
O             0.2774927428        0.0999342544        0.1967273119
O             0.8499105335        0.4725413803        0.4467371901
O             0.1500894622        0.4725413306        0.9467371997
O             0.2774927638        0.5999342154        0.8032726854
O             0.7225072307        0.5999342576        0.3032725797
O             0.1500894517        0.9725413227        0.0532627944
O             0.8499105132        0.9725413258        0.5532627768
O             0.7225072362        0.4000657846        0.1967273146
O             0.2774927693        0.4000657424        0.6967274203
O             0.8499105483        0.0274586773        0.9467372056
O             0.1500894868        0.0274586742        0.4467372232
O             0.7774927777        0.4000657730        0.8032726454
O             0.2225072407        0.4000658099        0.3032727017
O             0.6500894789        0.0274586350        0.0532627974
O             0.3499105329        0.0274586374        0.5532627869
O             0.2225072223        0.5999342270        0.1967273546
O             0.7774927593        0.5999341901        0.6967272983
O             0.3499105211        0.9725413650        0.9467372026
O             0.6500894671        0.9725413626        0.4467372131
O             0.7774927485        0.0999342246        0.3032726225
O             0.2225072404        0.0999341782        0.8032726211
O             0.6500894888        0.4725413515        0.5532627761
O             0.3499105186        0.4725413967        0.0532628084
O             0.2225072515        0.9000657754        0.6967273775
O             0.7774927596        0.9000658218        0.1967273789
O             0.3499105112        0.5274586485        0.4467372239
O             0.6500894814        0.5274586033        0.9467371916
End final coordinates



     Writing config-only to output data dir ./LLZO.save/

     Final scf calculation at the relaxed structure.
     The G-vectors are recalculated for the final unit cell
     Results may differ from those at the preceding step.
 
     Parallelization info
     --------------------
     sticks:   dense  smooth     PW     G-vecs:    dense   smooth      PW
     Min         130     130     32                12258    12258    1524
     Max         132     132     34                12276    12276    1542
     Sum       16817   16817   4197              1570453  1570453  196211
 
     Using Slab Decomposition
 


     bravais-lattice index     =            0
     lattice parameter (alat)  =      24.7911  a.u.
     unit-cell volume          =   14833.0274 (a.u.)^3
     number of atoms/cell      =          192
     number of atomic types    =            4
     number of electrons       =      1200.00
     number of Kohn-Sham states=          720
     kinetic-energy cutoff     =      85.0000  Ry
     charge density cutoff     =     340.0000  Ry
     scf convergence threshold =      1.0E-06
     mixing beta               =       0.2000
     number of iterations used =            8  plain     mixing
     press convergence thresh. =      5.0E-01
     Exchange-correlation= PBE
                           (   1   4   3   4   0   0   0)

     celldm(1)=  24.791128  celldm(2)=   0.000000  celldm(3)=   0.000000
     celldm(4)=   0.000000  celldm(5)=   0.000000  celldm(6)=   0.000000

     crystal axes: (cart. coord. in units of alat)
               a(1) = (   1.005103   0.000000   0.000000 )  
               a(2) = (   0.000000   1.005166   0.000000 )  
               a(3) = (   0.000000   0.000000   0.963591 )  

     reciprocal axes: (cart. coord. in units 2 pi/alat)
               b(1) = (  0.994923  0.000000  0.000000 )  
               b(2) = (  0.000000  0.994861  0.000000 )  
               b(3) = (  0.000000  0.000000  1.037785 )  


     PseudoPot. # 1 for Li read from file:
     ./Li.upf
     MD5 check sum: dbcf0ea72988e720c8c712b432d51b0d
     Pseudo is Norm-conserving, Zval =  3.0
     Generated using ONCVPSP code by D. R. Hamann
     Using radial grid of 1944 points,  4 beta functions with: 
                l(1) =   0
                l(2) =   0
                l(3) =   1
                l(4) =   1

     PseudoPot. # 2 for O  read from file:
     ./O.upf
     MD5 check sum: 3e3f909f7470e8921608ab6b1f57bbae
     Pseudo is Norm-conserving + core correction, Zval =  6.0
     Generated using ONCVPSP code by D. R. Hamann
     Using radial grid of  936 points,  5 beta functions with: 
                l(1) =   0
                l(2) =   0
                l(3) =   1
                l(4) =   1
                l(5) =   2

     PseudoPot. # 3 for La read from file:
     ./La.upf
     MD5 check sum: cd9f961d044315b77468ddb00b57bfe4
     Pseudo is Norm-conserving + core correction, Zval = 11.0
     Generated using ONCVPSP code by D. R. Hamann
     Using radial grid of 1812 points,  8 beta functions with: 
                l(1) =   0
                l(2) =   0
                l(3) =   1
                l(4) =   1
                l(5) =   2
                l(6) =   2
                l(7) =   3
                l(8) =   3

     PseudoPot. # 4 for Zr read from file:
     ./Zr.upf
     MD5 check sum: 8ea2969ae37cb4187a0232e4a563b421
     Pseudo is Norm-conserving + core correction, Zval = 12.0
     Generated using ONCVPSP code by D. R. Hamann
     Using radial grid of 1622 points,  6 beta functions with: 
                l(1) =   0
                l(2) =   0
                l(3) =   1
                l(4) =   1
                l(5) =   2
                l(6) =   2

     atomic species   valence    mass     pseudopotential
        Li             3.00     9.00000     Li( 1.00)
        O              6.00    16.00000     O ( 1.00)
        La            11.00   138.00000     La( 1.00)
        Zr            12.00    91.24000     Zr( 1.00)

      2 Sym. Ops., with inversion, found



   Cartesian axes

     site n.     atom                  positions (alat units)
         1           La  tau(   1) = (   0.5025515   0.7538745   0.6022401  )
         2           La  tau(   2) = (   0.5025515   0.7538745   0.1204447  )
         3           La  tau(   3) = (  -0.0000000   0.7538745   0.8431459  )
         4           La  tau(   4) = (  -0.0000000   0.7538745   0.3613506  )
         5           La  tau(   5) = (   0.5025515   0.2512915   0.3613506  )
         6           La  tau(   6) = (   0.5025515   0.2512915   0.8431459  )
         7           La  tau(   7) = (   0.0000000   0.2512915   0.1204448  )
         8           La  tau(   8) = (   0.0000000   0.2512915   0.6022401  )
         9           La  tau(   9) = (   0.2512757   0.8827336   0.4817953  )
        10           La  tau(  10) = (   0.7538272   0.8827336  -0.0000000  )
        11           La  tau(  11) = (   0.1288561   0.5025830   0.7226930  )
        12           La  tau(  12) = (   0.8762468   0.5025830   0.2408977  )
        13           La  tau(  13) = (   0.7538272   0.1224324   0.4817953  )
        14           La  tau(  14) = (   0.2512757   0.1224323   0.0000000  )
        15           La  tau(  15) = (   0.2512757   0.6250154   0.0000000  )
        16           La  tau(  16) = (   0.7538272   0.6250154   0.4817953  )
        17           La  tau(  17) = (   0.1288561   0.0000000   0.2408977  )
        18           La  tau(  18) = (   0.8762468  -0.0000000   0.7226930  )
        19           La  tau(  19) = (   0.7538272   0.3801506  -0.0000000  )
        20           La  tau(  20) = (   0.2512758   0.3801506   0.4817954  )
        21           La  tau(  21) = (   0.6314076   0.0000000   0.2408977  )
        22           La  tau(  22) = (   0.3736954  -0.0000000   0.7226930  )
        23           La  tau(  23) = (   0.6314076   0.5025829   0.7226930  )
        24           La  tau(  24) = (   0.3736954   0.5025830   0.2408977  )
        25           Zr  tau(  25) = (   0.2512758   0.7538745   0.7226930  )
        26           Zr  tau(  26) = (   0.7538272   0.7538745   0.2408976  )
        27           Zr  tau(  27) = (   0.0000000   0.5025830   0.0000000  )
        28           Zr  tau(  28) = (   0.0000000   0.5025830   0.4817953  )
        29           Zr  tau(  29) = (   0.7538272   0.2512915   0.2408977  )
        30           Zr  tau(  30) = (   0.2512757   0.2512915   0.7226930  )
        31           Zr  tau(  31) = (   0.2512757   0.7538745   0.2408977  )
        32           Zr  tau(  32) = (   0.7538272   0.7538744   0.7226930  )
        33           Zr  tau(  33) = (   0.0000000   0.0000000   0.4817953  )
        34           Zr  tau(  34) = (   0.0000000   0.0000000   0.0000000  )
        35           Zr  tau(  35) = (   0.7538272   0.2512915   0.7226930  )
        36           Zr  tau(  36) = (   0.2512757   0.2512915   0.2408977  )
        37           Zr  tau(  37) = (   0.5025515   0.0000000   0.4817953  )
        38           Zr  tau(  38) = (   0.5025515   0.0000000   0.0000000  )
        39           Zr  tau(  39) = (   0.5025515   0.5025830   0.0000000  )
        40           Zr  tau(  40) = (   0.5025515   0.5025830   0.4817953  )
        41           Li  tau(  41) = (   0.5025515   0.7538745   0.3613414  )
        42           Li  tau(  42) = (   0.5025515   0.7538745   0.8431367  )
        43           Li  tau(  43) = (   0.0000000   0.7538745   0.6022493  )
        44           Li  tau(  44) = (  -0.0000000   0.7538745   0.1204539  )
        45           Li  tau(  45) = (   0.5025515   0.2512915   0.6022493  )
        46           Li  tau(  46) = (   0.5025515   0.2512915   0.1204539  )
        47           Li  tau(  47) = (  -0.0000000   0.2512915   0.3613414  )
        48           Li  tau(  48) = (   0.0000000   0.2512915   0.8431368  )
        49           Li  tau(  49) = (   0.6818387   0.9331775   0.6022479  )
        50           Li  tau(  50) = (   0.3232643   0.9331775   0.1204525  )
        51           Li  tau(  51) = (   0.1792872   0.9331775   0.8431381  )
        52           Li  tau(  52) = (   0.8258158   0.9331775   0.3613428  )
        53           Li  tau(  53) = (   0.3232643   0.0719885   0.3613428  )
        54           Li  tau(  54) = (   0.6818387   0.0719885   0.8431381  )
        55           Li  tau(  55) = (   0.8258158   0.0719885   0.1204526  )
        56           Li  tau(  56) = (   0.1792872   0.0719885   0.6022479  )
        57           Li  tau(  57) = (   0.6818387   0.5745715   0.1204526  )
        58           Li  tau(  58) = (   0.3232643   0.5745715   0.6022479  )
        59           Li  tau(  59) = (   0.1792872   0.5745715   0.3613428  )
        60           Li  tau(  60) = (   0.8258158   0.5745714   0.8431381  )
        61           Li  tau(  61) = (   0.3232643   0.4305945   0.8431381  )
        62           Li  tau(  62) = (   0.6818386   0.4305945   0.3613428  )
        63           Li  tau(  63) = (   0.8258158   0.4305945   0.6022479  )
        64           Li  tau(  64) = (   0.1792872   0.4305945   0.1204526  )
        65           Li  tau(  65) = (   0.3376908   0.8356765   0.9095316  )
        66           Li  tau(  66) = (   0.6674121   0.8356765   0.4277363  )
        67           Li  tau(  67) = (   0.0817842   0.5889917   0.1868376  )
        68           Li  tau(  68) = (   0.9233188   0.5889917   0.6686330  )
        69           Li  tau(  69) = (   0.6674121   0.1694895   0.0540590  )
        70           Li  tau(  70) = (   0.3376908   0.1694895   0.5358544  )
        71           Li  tau(  71) = (   0.9233188   0.4161742   0.7767530  )
        72           Li  tau(  72) = (   0.0817842   0.4161743   0.2949577  )
        73           Li  tau(  73) = (   0.3376908   0.6720725   0.4277363  )
        74           Li  tau(  74) = (   0.6674121   0.6720725   0.9095316  )
        75           Li  tau(  75) = (   0.0817842   0.9187572   0.6686330  )
        76           Li  tau(  76) = (   0.9233188   0.9187572   0.1868377  )
        77           Li  tau(  77) = (   0.6674122   0.3330934   0.5358544  )
        78           Li  tau(  78) = (   0.3376908   0.3330935   0.0540591  )
        79           Li  tau(  79) = (   0.9233188   0.0864087   0.2949577  )
        80           Li  tau(  80) = (   0.0817842   0.0864088   0.7767530  )
        81           Li  tau(  81) = (   0.8402423   0.3330935   0.4277362  )
        82           Li  tau(  82) = (   0.1648607   0.3330934   0.9095317  )
        83           Li  tau(  83) = (   0.5843357   0.0864087   0.6686330  )
        84           Li  tau(  84) = (   0.4207673   0.0864087   0.1868376  )
        85           Li  tau(  85) = (   0.1648606   0.6720725   0.5358544  )
        86           Li  tau(  86) = (   0.8402423   0.6720726   0.0540590  )
        87           Li  tau(  87) = (   0.4207673   0.9187573   0.2949577  )
        88           Li  tau(  88) = (   0.5843357   0.9187573   0.7767530  )
        89           Li  tau(  89) = (   0.8402423   0.1694895   0.9095317  )
        90           Li  tau(  90) = (   0.1648607   0.1694896   0.4277363  )
        91           Li  tau(  91) = (   0.5843356   0.4161742   0.1868376  )
        92           Li  tau(  92) = (   0.4207673   0.4161743   0.6686330  )
        93           Li  tau(  93) = (   0.1648607   0.8356764   0.0540590  )
        94           Li  tau(  94) = (   0.8402423   0.8356764   0.5358544  )
        95           Li  tau(  95) = (   0.4207673   0.5889918   0.7767531  )
        96           Li  tau(  96) = (   0.5843357   0.5889917   0.2949577  )
        97           O   tau(  97) = (   0.3067092   0.7188170   0.5747413  )
        98           O   tau(  98) = (   0.6983938   0.7188171   0.0929460  )
        99           O   tau(  99) = (   0.9700805   0.5579699   0.8156318  )
       100           O   tau( 100) = (   0.0350225   0.5579699   0.3338364  )
       101           O   tau( 101) = (   0.6983938   0.2863489   0.3888493  )
       102           O   tau( 102) = (   0.3067092   0.2863489   0.8706447  )
       103           O   tau( 103) = (   0.0350225   0.4471961   0.1479589  )
       104           O   tau( 104) = (   0.9700805   0.4471961   0.6297542  )
       105           O   tau( 105) = (   0.3067092   0.7889319   0.0929460  )
       106           O   tau( 106) = (   0.6983937   0.7889319   0.5747413  )
       107           O   tau( 107) = (   0.9700804   0.9497791   0.3338365  )
       108           O   tau( 108) = (   0.0350225   0.9497791   0.8156318  )
       109           O   tau( 109) = (   0.6983938   0.2162341   0.8706447  )
       110           O   tau( 110) = (   0.3067092   0.2162341   0.3888494  )
       111           O   tau( 111) = (   0.0350225   0.0553869   0.6297542  )
       112           O   tau( 112) = (   0.9700805   0.0553869   0.1479589  )
       113           O   tau( 113) = (   0.8092607   0.2162341   0.0929460  )
       114           O   tau( 114) = (   0.1958423   0.2162341   0.5747413  )
       115           O   tau( 115) = (   0.4675290   0.0553869   0.3338364  )
       116           O   tau( 116) = (   0.5375740   0.0553869   0.8156318  )
       117           O   tau( 117) = (   0.1958423   0.7889319   0.8706447  )
       118           O   tau( 118) = (   0.8092607   0.7889319   0.3888494  )
       119           O   tau( 119) = (   0.5375740   0.9497791   0.6297542  )
       120           O   tau( 120) = (   0.4675289   0.9497791   0.1479589  )
       121           O   tau( 121) = (   0.8092607   0.2863489   0.5747413  )
       122           O   tau( 122) = (   0.1958423   0.2863489   0.0929460  )
       123           O   tau( 123) = (   0.4675290   0.4471961   0.8156318  )
       124           O   tau( 124) = (   0.5375740   0.4471961   0.3338364  )
       125           O   tau( 125) = (   0.1958423   0.7188171   0.3888493  )
       126           O   tau( 126) = (   0.8092607   0.7188170   0.8706447  )
       127           O   tau( 127) = (   0.5375740   0.5579699   0.1479589  )
       128           O   tau( 128) = (   0.4675290   0.5579699   0.6297542  )
       129           O   tau( 129) = (   0.1036370   0.8084761   0.2076723  )
       130           O   tau( 130) = (   0.9014660   0.8084761   0.6894677  )
       131           O   tau( 131) = (   0.0545438   0.3549308   0.4485758  )
       132           O   tau( 132) = (   0.9505591   0.3549309   0.9303711  )
       133           O   tau( 133) = (   0.9014660   0.1966899   0.7559183  )
       134           O   tau( 134) = (   0.1036370   0.1966899   0.2741230  )
       135           O   tau( 135) = (   0.9505592   0.6502351   0.5150149  )
       136           O   tau( 136) = (   0.0545438   0.6502351   0.0332195  )
       137           O   tau( 137) = (   0.1036370   0.6992729   0.6894677  )
       138           O   tau( 138) = (   0.9014660   0.6992730   0.2076723  )
       139           O   tau( 139) = (   0.0545439   0.1476522   0.9303712  )
       140           O   tau( 140) = (   0.9505591   0.1476521   0.4485758  )
       141           O   tau( 141) = (   0.9014660   0.3058931   0.2741230  )
       142           O   tau( 142) = (   0.1036370   0.3058930   0.7559183  )
       143           O   tau( 143) = (   0.9505591   0.8575138   0.0332195  )
       144           O   tau( 144) = (   0.0545439   0.8575139   0.5150149  )
       145           O   tau( 145) = (   0.6061885   0.3058931   0.6894677  )
       146           O   tau( 146) = (   0.3989145   0.3058931   0.2076724  )
       147           O   tau( 147) = (   0.5570953   0.8575138   0.9303712  )
       148           O   tau( 148) = (   0.4480076   0.8575138   0.4485758  )
       149           O   tau( 149) = (   0.3989145   0.6992729   0.2741230  )
       150           O   tau( 150) = (   0.6061885   0.6992729   0.7559183  )
       151           O   tau( 151) = (   0.4480077   0.1476521   0.0332195  )
       152           O   tau( 152) = (   0.5570953   0.1476522   0.5150149  )
       153           O   tau( 153) = (   0.6061884   0.1966899   0.2076724  )
       154           O   tau( 154) = (   0.3989145   0.1966899   0.6894677  )
       155           O   tau( 155) = (   0.5570953   0.6502351   0.4485758  )
       156           O   tau( 156) = (   0.4480077   0.6502351   0.9303711  )
       157           O   tau( 157) = (   0.3989145   0.8084761   0.7559183  )
       158           O   tau( 158) = (   0.6061884   0.8084761   0.2741229  )
       159           O   tau( 159) = (   0.4480076   0.3549309   0.5150149  )
       160           O   tau( 160) = (   0.5570953   0.3549308   0.0332195  )
       161           O   tau( 161) = (   0.2789088   0.9047155   0.2922307  )
       162           O   tau( 162) = (   0.7261942   0.9047155   0.7740261  )
       163           O   tau( 163) = (   0.1508554   0.5301835   0.5331189  )
       164           O   tau( 164) = (   0.8542476   0.5301835   0.0513235  )
       165           O   tau( 165) = (   0.7261942   0.1004504   0.6713600  )
       166           O   tau( 166) = (   0.2789088   0.1004505   0.1895646  )
       167           O   tau( 167) = (   0.8542476   0.4749825   0.4304718  )
       168           O   tau( 168) = (   0.1508554   0.4749825   0.9122671  )
       169           O   tau( 169) = (   0.2789088   0.6030335   0.7740261  )
       170           O   tau( 170) = (   0.7261942   0.6030335   0.2922306  )
       171           O   tau( 171) = (   0.1508554   0.9775655   0.0513235  )
       172           O   tau( 172) = (   0.8542476   0.9775655   0.5331189  )
       173           O   tau( 173) = (   0.7261942   0.4021325   0.1895646  )
       174           O   tau( 174) = (   0.2789088   0.4021325   0.6713600  )
[...]
     7.1209   7.1317   7.1393   7.1527   7.1531   7.1540   7.1542   7.1667
     7.1992   7.1992   7.2023   7.2025   7.2065   7.2212   7.2217   7.2226
     7.2227   7.2363   7.2368   7.2414   7.2901   7.2910   7.2952   7.2954
     7.2985   7.3031   7.3139   7.3450   7.3452   7.3511   7.3513   7.3555
     7.3561   7.3632   7.3634   7.3653   7.3763   7.3766   7.3856   7.3860
     7.4187   7.4190   7.4233   7.4237   7.4312   7.4694   7.4698   7.4766
     7.4908   7.5195   7.5203   7.5365   7.5394   7.5395   7.5557   7.5560
     7.5572   7.5572   7.5990   7.5995   7.6025   7.6028   7.6149   7.6418
     7.6421   7.6470   7.6689   7.6690   7.6711   7.6711   7.6850   7.6900
     7.6903   7.7479   7.7498   7.7500   7.7724   7.7727   7.7818   7.7844
     7.7853   7.7859   7.7869   7.8358   7.8444   7.8446   7.8562   7.8564
     7.8625   7.8629   7.8635   7.8642   7.8642   7.8644   7.8790   7.8794
     7.8872   7.8876   7.9256   7.9311   7.9772   7.9809   7.9849   7.9849
    12.3519  12.5065  12.5069  12.5099  12.5519  12.5601  12.5888  12.5889
    12.6201  12.6202  12.6465  12.6470  12.6750  12.6885  12.6896  12.7023
    12.7025  12.7121  12.7128  12.7299  12.7303  12.7313  12.7329  12.7523
    12.7525  12.7863  12.7871  12.7935  12.8172  12.8189  12.8424  12.8429
    12.8634  12.8642  12.8663  12.8971  12.8974  12.9118  12.9121  12.9429
    12.9436  12.9436  12.9688  12.9688  12.9904  12.9964  13.0726  13.0728
    13.0824  13.1069  13.1070  13.1131  13.1134  13.1301  13.1315  13.1321
    13.1410  13.1470  13.1471  13.1502  13.1504  13.1786  13.1789  13.1872
    13.1874  13.2021  13.2026  13.2065  13.2145  13.2151  13.2166  13.2171
    13.2183  13.2206  13.2248  13.2255  13.2430  13.2470  13.2475  13.2504
    13.2721  13.2725  13.2780  13.2798  13.2957  13.2968  13.3066  13.3074
    13.3097  13.3156  13.3179  13.3184  13.3260  13.3260  13.3261  13.3270
    13.3417  13.3673  13.3699  13.3708  13.3714  13.3715  13.3719  13.3779
    13.3789  13.3829  13.3957  13.4001  13.4028  13.4039  13.4049  13.4127
    13.4144  13.4175  13.4199  13.4299  13.4300  13.4381  13.4485  13.4519

     the Fermi energy is    10.5635 ev

!    total energy              =   -7311.20974939 Ry
     estimated scf accuracy    <       0.00000022 Ry
     smearing contrib. (-TS)   =       0.00000000 Ry
     internal energy E=F+TS    =   -7311.20974939 Ry

     The total energy is F=E-TS. E is the sum of the following terms:
     one-electron contribution =   -1530.03528831 Ry
     hartree contribution      =    1394.53369100 Ry
     xc contribution           =   -1726.91536704 Ry
     ewald contribution        =   -5448.79278504 Ry

     convergence has been achieved in  14 iterations

     Forces acting on atoms (cartesian axes, Ry/au):

     atom    1 type  3   force =    -0.00000002    0.00000017   -0.00000517
     atom    2 type  3   force =    -0.00000028    0.00000023   -0.00000475
     atom    3 type  3   force =     0.00000018    0.00000007    0.00000489
     atom    4 type  3   force =     0.00000029   -0.00000012    0.00000499
     atom    5 type  3   force =     0.00000002   -0.00000017    0.00000517
     atom    6 type  3   force =     0.00000028   -0.00000023    0.00000475
     atom    7 type  3   force =    -0.00000018   -0.00000007   -0.00000489
     atom    8 type  3   force =    -0.00000029    0.00000012   -0.00000499
     atom    9 type  3   force =    -0.00000008    0.00008300   -0.00000014
     atom   10 type  3   force =    -0.00000004    0.00008293    0.00000005
     atom   11 type  3   force =     0.00008857   -0.00000026   -0.00000045
     atom   12 type  3   force =    -0.00008857    0.00000026    0.00000045
     atom   13 type  3   force =     0.00000008   -0.00008300    0.00000014
     atom   14 type  3   force =     0.00000004   -0.00008293   -0.00000005
     atom   15 type  3   force =     0.00000054   -0.00008268    0.00000060
     atom   16 type  3   force =     0.00000024   -0.00008307   -0.00000011
     atom   17 type  3   force =     0.00008910   -0.00000033    0.00000028
     atom   18 type  3   force =    -0.00008910    0.00000033   -0.00000028
     atom   19 type  3   force =    -0.00000054    0.00008268   -0.00000060
     atom   20 type  3   force =    -0.00000024    0.00008307    0.00000011
     atom   21 type  3   force =     0.00008860   -0.00000012   -0.00000006
     atom   22 type  3   force =    -0.00008860    0.00000012    0.00000006
     atom   23 type  3   force =     0.00008892   -0.00000016    0.00000035
     atom   24 type  3   force =    -0.00008892    0.00000016   -0.00000035
     atom   25 type  4   force =     0.00000008    0.00000011    0.00000013
     atom   26 type  4   force =    -0.00000005   -0.00000004   -0.00000017
     atom   27 type  4   force =     0.00000000    0.00000000    0.00000000
     atom   28 type  4   force =     0.00000000    0.00000000    0.00000000
     atom   29 type  4   force =    -0.00000008   -0.00000011   -0.00000013
     atom   30 type  4   force =     0.00000005    0.00000004    0.00000017
     atom   31 type  4   force =    -0.00000025    0.00000030    0.00000024
     atom   32 type  4   force =    -0.00000005    0.00000027    0.00000002
     atom   33 type  4   force =     0.00000000    0.00000000    0.00000000
     atom   34 type  4   force =     0.00000000    0.00000000    0.00000000
     atom   35 type  4   force =     0.00000025   -0.00000030   -0.00000024
     atom   36 type  4   force =     0.00000005   -0.00000027   -0.00000002
     atom   37 type  4   force =     0.00000000    0.00000000    0.00000000
     atom   38 type  4   force =     0.00000000    0.00000000    0.00000000
     atom   39 type  4   force =     0.00000000    0.00000000    0.00000000
     atom   40 type  4   force =     0.00000000    0.00000000    0.00000000
     atom   41 type  1   force =    -0.00000006    0.00000023    0.00000240
     atom   42 type  1   force =    -0.00000002    0.00000012    0.00000242
     atom   43 type  1   force =     0.00000029   -0.00000002   -0.00000222
     atom   44 type  1   force =    -0.00000014    0.00000012   -0.00000229
     atom   45 type  1   force =     0.00000006   -0.00000023   -0.00000240
     atom   46 type  1   force =     0.00000002   -0.00000012   -0.00000242
     atom   47 type  1   force =    -0.00000029    0.00000002    0.00000222
     atom   48 type  1   force =     0.00000014   -0.00000012    0.00000229
     atom   49 type  1   force =    -0.00009663   -0.00008325   -0.00000050
     atom   50 type  1   force =     0.00009679   -0.00008334   -0.00000040
     atom   51 type  1   force =    -0.00009677   -0.00008340    0.00000049
     atom   52 type  1   force =     0.00009669   -0.00008343    0.00000053
     atom   53 type  1   force =     0.00009663    0.00008325    0.00000050
     atom   54 type  1   force =    -0.00009679    0.00008334    0.00000040
     atom   55 type  1   force =     0.00009677    0.00008340   -0.00000049
     atom   56 type  1   force =    -0.00009669    0.00008343   -0.00000053
     atom   57 type  1   force =    -0.00009672    0.00008335   -0.00000028
     atom   58 type  1   force =     0.00009676    0.00008352   -0.00000048
     atom   59 type  1   force =    -0.00009680    0.00008337    0.00000046
     atom   60 type  1   force =     0.00009674    0.00008333    0.00000047
     atom   61 type  1   force =     0.00009672   -0.00008335    0.00000028
     atom   62 type  1   force =    -0.00009676   -0.00008352    0.00000048
     atom   63 type  1   force =     0.00009680   -0.00008337   -0.00000046
     atom   64 type  1   force =    -0.00009674   -0.00008333   -0.00000047
     atom   65 type  1   force =     0.00015537    0.00022845   -0.00005815
     atom   66 type  1   force =    -0.00015534    0.00022846   -0.00005821
     atom   67 type  1   force =     0.00020102    0.00015506   -0.00005286
     atom   68 type  1   force =    -0.00020092    0.00015497   -0.00005301
     atom   69 type  1   force =    -0.00015537   -0.00022845    0.00005815
     atom   70 type  1   force =     0.00015534   -0.00022846    0.00005821
     atom   71 type  1   force =    -0.00020102   -0.00015506    0.00005286
     atom   72 type  1   force =     0.00020092   -0.00015497    0.00005301
     atom   73 type  1   force =     0.00015530   -0.00022843   -0.00005819
     atom   74 type  1   force =    -0.00015533   -0.00022836   -0.00005816
     atom   75 type  1   force =     0.00020100   -0.00015501   -0.00005287
     atom   76 type  1   force =    -0.00020079   -0.00015500   -0.00005286
     atom   77 type  1   force =    -0.00015530    0.00022843    0.00005819
     atom   78 type  1   force =     0.00015533    0.00022836    0.00005816
     atom   79 type  1   force =    -0.00020100    0.00015501    0.00005287
     atom   80 type  1   force =     0.00020079    0.00015500    0.00005286
     atom   81 type  1   force =     0.00015529    0.00022828   -0.00005805
     atom   82 type  1   force =    -0.00015549    0.00022837   -0.00005823
     atom   83 type  1   force =     0.00020104    0.00015515   -0.00005289
     atom   84 type  1   force =    -0.00020105    0.00015497   -0.00005311
     atom   85 type  1   force =    -0.00015529   -0.00022828    0.00005805
     atom   86 type  1   force =     0.00015549   -0.00022837    0.00005823
     atom   87 type  1   force =    -0.00020104   -0.00015515    0.00005289
     atom   88 type  1   force =     0.00020105   -0.00015497    0.00005311
     atom   89 type  1   force =     0.00015533   -0.00022863   -0.00005822
     atom   90 type  1   force =    -0.00015528   -0.00022866   -0.00005802
     atom   91 type  1   force =     0.00020113   -0.00015507   -0.00005276
     atom   92 type  1   force =    -0.00020079   -0.00015505   -0.00005286
     atom   93 type  1   force =    -0.00015533    0.00022863    0.00005822
     atom   94 type  1   force =     0.00015528    0.00022866    0.00005802
     atom   95 type  1   force =    -0.00020113    0.00015507    0.00005276
     atom   96 type  1   force =     0.00020079    0.00015505    0.00005286
     atom   97 type  2   force =    -0.00012255    0.00000191    0.00020591
     atom   98 type  2   force =     0.00012386    0.00000060    0.00020588
     atom   99 type  2   force =     0.00000278   -0.00011849    0.00020309
     atom  100 type  2   force =    -0.00000223   -0.00011850    0.00020339
     atom  101 type  2   force =     0.00012255   -0.00000191   -0.00020591
     atom  102 type  2   force =    -0.00012386   -0.00000060   -0.00020588
     atom  103 type  2   force =    -0.00000278    0.00011849   -0.00020309
     atom  104 type  2   force =     0.00000223    0.00011850   -0.00020339
     atom  105 type  2   force =    -0.00012427   -0.00000147    0.00020612
     atom  106 type  2   force =     0.00012454   -0.00000042    0.00020493
     atom  107 type  2   force =     0.00000409    0.00011851    0.00020309
     atom  108 type  2   force =    -0.00000234    0.00011855    0.00020274
     atom  109 type  2   force =     0.00012427    0.00000147   -0.00020612
     atom  110 type  2   force =    -0.00012454    0.00000042   -0.00020493
     atom  111 type  2   force =    -0.00000409   -0.00011851   -0.00020309
     atom  112 type  2   force =     0.00000234   -0.00011855   -0.00020274
     atom  113 type  2   force =    -0.00012368    0.00000208    0.00020654
     atom  114 type  2   force =     0.00012407   -0.00000027    0.00020697
     atom  115 type  2   force =     0.00000253   -0.00011951    0.00020122
     atom  116 type  2   force =    -0.00000161   -0.00011755    0.00020359
     atom  117 type  2   force =     0.00012368   -0.00000208   -0.00020654
     atom  118 type  2   force =    -0.00012407    0.00000027   -0.00020697
     atom  119 type  2   force =    -0.00000253    0.00011951   -0.00020122
     atom  120 type  2   force =     0.00000161    0.00011755   -0.00020359
     atom  121 type  2   force =    -0.00012593   -0.00000158    0.00020574
     atom  122 type  2   force =     0.00012398   -0.00000106    0.00020636
     atom  123 type  2   force =     0.00000208    0.00011854    0.00020213
     atom  124 type  2   force =    -0.00000140    0.00011746    0.00020228
     atom  125 type  2   force =     0.00012593    0.00000158   -0.00020574
     atom  126 type  2   force =    -0.00012398    0.00000106   -0.00020636
     atom  127 type  2   force =    -0.00000208   -0.00011854   -0.00020213
     atom  128 type  2   force =     0.00000140   -0.00011746   -0.00020228
     atom  129 type  2   force =     0.00008995    0.00007244    0.00006306
     atom  130 type  2   force =    -0.00009021    0.00007163    0.00006260
     atom  131 type  2   force =     0.00007264    0.00007965    0.00007056
     atom  132 type  2   force =    -0.00007121    0.00007997    0.00007158
     atom  133 type  2   force =    -0.00008995   -0.00007244   -0.00006306
     atom  134 type  2   force =     0.00009021   -0.00007163   -0.00006260
     atom  135 type  2   force =    -0.00007264   -0.00007965   -0.00007056
     atom  136 type  2   force =     0.00007121   -0.00007997   -0.00007158
     atom  137 type  2   force =     0.00008964   -0.00007311    0.00006731
     atom  138 type  2   force =    -0.00008993   -0.00007125    0.00006622
     atom  139 type  2   force =     0.00007008   -0.00007978    0.00007079
     atom  140 type  2   force =    -0.00007114   -0.00007988    0.00007055
     atom  141 type  2   force =    -0.00008964    0.00007311   -0.00006731
     atom  142 type  2   force =     0.00008993    0.00007125   -0.00006622
     atom  143 type  2   force =    -0.00007008    0.00007978   -0.00007079
     atom  144 type  2   force =     0.00007114    0.00007988   -0.00007055
     atom  145 type  2   force =     0.00008975    0.00007419    0.00006506
     atom  146 type  2   force =    -0.00008903    0.00007054    0.00006626
     atom  147 type  2   force =     0.00007207    0.00008125    0.00007133
     atom  148 type  2   force =    -0.00007223    0.00007815    0.00007284
     atom  149 type  2   force =    -0.00008975   -0.00007419   -0.00006506
     atom  150 type  2   force =     0.00008903   -0.00007054   -0.00006626
     atom  151 type  2   force =    -0.00007207   -0.00008125   -0.00007133
     atom  152 type  2   force =     0.00007223   -0.00007815   -0.00007284
     atom  153 type  2   force =     0.00008973   -0.00007288    0.00006652
     atom  154 type  2   force =    -0.00009091   -0.00007246    0.00006486
     atom  155 type  2   force =     0.00007113   -0.00007878    0.00007324
     atom  156 type  2   force =    -0.00007213   -0.00007849    0.00007232
     atom  157 type  2   force =    -0.00008973    0.00007288   -0.00006652
     atom  158 type  2   force =     0.00009091    0.00007246   -0.00006486
     atom  159 type  2   force =    -0.00007113    0.00007878   -0.00007324
     atom  160 type  2   force =     0.00007213    0.00007849   -0.00007232
     atom  161 type  2   force =    -0.00014777   -0.00002431    0.00019616
     atom  162 type  2   force =     0.00014814   -0.00002289    0.00019614
     atom  163 type  2   force =    -0.00002037   -0.00015449    0.00019229
     atom  164 type  2   force =     0.00001890   -0.00015440    0.00019280
     atom  165 type  2   force =     0.00014777    0.00002431   -0.00019616
     atom  166 type  2   force =    -0.00014814    0.00002289   -0.00019614
     atom  167 type  2   force =     0.00002037    0.00015449   -0.00019229
     atom  168 type  2   force =    -0.00001890    0.00015440   -0.00019280
     atom  169 type  2   force =    -0.00014671    0.00002435    0.00019546
     atom  170 type  2   force =     0.00014738    0.00002327    0.00019627
     atom  171 type  2   force =    -0.00001877    0.00015311    0.00019259
     atom  172 type  2   force =     0.00001957    0.00015476    0.00019331
     atom  173 type  2   force =     0.00014671   -0.00002435   -0.00019546
     atom  174 type  2   force =    -0.00014738   -0.00002327   -0.00019627
     atom  175 type  2   force =     0.00001877   -0.00015311   -0.00019259
     atom  176 type  2   force =    -0.00001957   -0.00015476   -0.00019331
     atom  177 type  2   force =    -0.00014711   -0.00002306    0.00019626
     atom  178 type  2   force =     0.00014777   -0.00002346    0.00019534
     atom  179 type  2   force =    -0.00001898   -0.00015333    0.00019459
     atom  180 type  2   force =     0.00001896   -0.00015297    0.00019232
     atom  181 type  2   force =     0.00014711    0.00002306   -0.00019626
     atom  182 type  2   force =    -0.00014777    0.00002346   -0.00019534
     atom  183 type  2   force =     0.00001898    0.00015333   -0.00019459
     atom  184 type  2   force =    -0.00001896    0.00015297   -0.00019232
     atom  185 type  2   force =    -0.00014827    0.00002458    0.00019593
     atom  186 type  2   force =     0.00014780    0.00002443    0.00019544
     atom  187 type  2   force =    -0.00002011    0.00015260    0.00019299
     atom  188 type  2   force =     0.00001879    0.00015558    0.00019291
     atom  189 type  2   force =     0.00014827   -0.00002458   -0.00019593
     atom  190 type  2   force =    -0.00014780   -0.00002443   -0.00019544
     atom  191 type  2   force =     0.00002011   -0.00015260   -0.00019299
     atom  192 type  2   force =    -0.00001879   -0.00015558   -0.00019291

     Total force =     0.002653     Total SCF correction =     0.000589
     SCF correction compared to forces is large: reduce conv_thr to get better values


     Computing stress (Cartesian axis) and pressure

          total   stress  (Ry/bohr**3)                   (kbar)     P=       -0.10
  -0.00000003   0.00000000   0.00000000           -0.00        0.00        0.00
   0.00000000  -0.00000004   0.00000000            0.00       -0.01        0.00
   0.00000000   0.00000000  -0.00000193            0.00        0.00       -0.28

 
     init_run     :     31.82s CPU     13.09s WALL (       2 calls)
     electrons    :   2517.93s CPU    704.42s WALL (       2 calls)
     forces       :      6.97s CPU      1.87s WALL (       2 calls)
     stress       :     44.92s CPU     38.00s WALL (       2 calls)

     Called by init_run:
     wfcinit      :     25.52s CPU      8.00s WALL (       2 calls)
     potinit      :      0.82s CPU      0.22s WALL (       2 calls)
     hinit0       :      4.14s CPU      3.46s WALL (       2 calls)

     Called by electrons:
     c_bands      :   2432.52s CPU    681.27s WALL (      28 calls)
     sum_band     :     77.12s CPU     20.88s WALL (      28 calls)
     v_of_rho     :      6.56s CPU      1.78s WALL (      30 calls)
     mix_rho      :      1.71s CPU      0.47s WALL (      28 calls)

     Called by c_bands:
     init_us_2    :      0.99s CPU      0.30s WALL (      58 calls)
     init_us_2:cp :      0.88s CPU      0.30s WALL (      58 calls)
     regterg      :   2416.52s CPU    673.93s WALL (      45 calls)

     Called by *egterg:
     rdiaghg      :   1059.35s CPU    309.17s WALL (     702 calls)
     h_psi        :   1025.40s CPU    276.87s WALL (     713 calls)
     g_psi        :      0.26s CPU      0.17s WALL (     666 calls)

     Called by h_psi:
     h_psi:calbec :     70.75s CPU     18.49s WALL (     713 calls)
     vloc_psi     :    895.97s CPU    243.02s WALL (     713 calls)
     add_vuspsi   :     56.94s CPU     15.17s WALL (     713 calls)

     General routines
     calbec       :     74.50s CPU     19.46s WALL (     723 calls)
     fft          :      7.18s CPU      2.03s WALL (     278 calls)
     ffts         :      0.47s CPU      0.13s WALL (      28 calls)
     fftw         :    881.41s CPU    244.39s WALL (  121220 calls)
 
     Parallel routines
 
     PWSCF        :  43m23.79s CPU  12m39.01s WALL

 
   This run was terminated on:  15:23:34  11Mar2022            

=------------------------------------------------------------------------------=
   JOB DONE.
=------------------------------------------------------------------------------=
