
     Program PWSCF v.7.3.1 starts on  2Jul2025 at 13:51:23 
        Git branch: HEAD
        Last git commit: 7fd60c9bc9fe7a7d1fe6f1049f4afba0eab9aeef-dirty
        Last git commit date: Thu Feb 29 10:18:05 2024 +0000
        Last git commit subject: Merge branch 'master_qe_7.3.1' into 'master'

     This program is part of the open-source Quantum ESPRESSO suite
     for quantum simulation of materials; please cite
         "P. Giannozzi et al., J. Phys.:Condens. Matter 21 395502 (2009);
         "P. Giannozzi et al., J. Phys.:Condens. Matter 29 465901 (2017);
         "P. Giannozzi et al., J. Chem. Phys. 152 154105 (2020);
          URL http://www.quantum-espresso.org", 
     in publications or presentations arising from this work. More details at
     http://www.quantum-espresso.org/quote

     Parallel version (MPI & OpenMP), running on    1024 processor cores
     Number of MPI processes:                 4
     Threads/MPI process:                   256

     MPI processes distributed on     4 nodes
     487045 MiB available memory on the printing compute node when the environment starts

     Reading input from qe_Pt3Ni_ionRelax.in

     Current dimensions of program PWSCF are:
     Max number of different atomic species (ntypx) = 10
     Max number of k-points (npk) =  40000
     Max angular momentum in pseudopotentials (lmaxx) =  4

     gamma-point specific algorithms are used

     R & G space division:  proc/nbgrp/npool/nimage =       4
     Subspace diagonalization in iterative solution of the eigenvalue problem:
     a serial algorithm will be used


     Parallelization info
     --------------------
     sticks:   dense  smooth     PW     G-vecs:    dense   smooth      PW
     Min       34375   34375   8588              9590052  9590052 1198588
     Max       34378   34378   8590              9590062  9590062 1198598
     Sum      137505  137505  34357             38360227 38360227 4794373

     Using Slab Decomposition



     bravais-lattice index     =            1
     lattice parameter (alat)  =      60.0000  a.u.
     unit-cell volume          =  216000.0000 (a.u.)^3
     number of atoms/cell      =            4
     number of atomic types    =            2
     number of electrons       =        72.00
     number of Kohn-Sham states=           50
     kinetic-energy cutoff     =     120.0000  Ry
     charge density cutoff     =     480.0000  Ry
     scf convergence threshold =      1.0E-10
     mixing beta               =       0.2000
     number of iterations used =            8  plain     mixing
     energy convergence thresh.=      1.0E-04
     force convergence thresh. =      1.0E-03
     Exchange-correlation= PBE
                           (   1   4   3   4   0   0   0)
     nstep                     =           50

     Hubbard projectors: atomic
     Hubbard parameters of DFT+U (Dudarev formulation) in eV:
     U(Ni-3d) =  1.0000
     U(Pt-5d) =  3.0000

     Internal variables: lda_plus_u =T, lda_plus_u_kind = 0

     celldm(1)=  60.000000  celldm(2)=   0.000000  celldm(3)=   0.000000
     celldm(4)=   0.000000  celldm(5)=   0.000000  celldm(6)=   0.000000

     crystal axes: (cart. coord. in units of alat)
               a(1) = (   1.000000   0.000000   0.000000 )  
               a(2) = (   0.000000   1.000000   0.000000 )  
               a(3) = (   0.000000   0.000000   1.000000 )  

     reciprocal axes: (cart. coord. in units 2 pi/alat)
               b(1) = (  1.000000  0.000000  0.000000 )  
               b(2) = (  0.000000  1.000000  0.000000 )  
               b(3) = (  0.000000  0.000000  1.000000 )  


     PseudoPot. # 1 for Ni read from file:
     ./Ni.upf
     MD5 check sum: 2b0a79d100e227970886d6963e34175b
     Pseudo is Norm-conserving + core correction, Zval = 18.0
     Generated using ONCVPSP code by D. R. Hamann
     Using radial grid of 1372 points,  6 beta functions with: 
                l(1) =   0
                l(2) =   0
                l(3) =   1
                l(4) =   1
                l(5) =   2
                l(6) =   2

     PseudoPot. # 2 for Pt read from file:
     ./Pt.upf
     MD5 check sum: 3caa314b32314335c676ebce8d0bd64e
     Pseudo is Norm-conserving + core correction, Zval = 18.0
     Generated using ONCVPSP code by D. R. Hamann
     Using radial grid of 1374 points,  8 beta functions with: 
                l(1) =   0
                l(2) =   0
                l(3) =   1
                l(4) =   1
                l(5) =   2
                l(6) =   2
                l(7) =   3
                l(8) =   3

     atomic species   valence    mass     pseudopotential
     Ni               18.00    58.00000     Ni( 1.00)
     Pt               18.00   195.00000     Pt( 1.00)

     Starting magnetic structure 
     atomic species   magnetization
     Ni              0.200
     Pt              0.200

      6 Sym. Ops. (no inversion) found


                                    s                        frac. trans.

      isym =  1     identity                                     

 cryst.   s( 1) = (     1          0          0      )
                  (     0          1          0      )
                  (     0          0          1      )

 cart.    s( 1) = (  1.0000000  0.0000000  0.0000000 )
                  (  0.0000000  1.0000000  0.0000000 )
                  (  0.0000000  0.0000000  1.0000000 )


      isym =  2     120 deg rotation - cart. axis [-1,-1,-1]     

 cryst.   s( 2) = (     0          0          1      )
                  (     1          0          0      )
                  (     0          1          0      )

 cart.    s( 2) = (  0.0000000  1.0000000  0.0000000 )
                  (  0.0000000  0.0000000  1.0000000 )
                  (  1.0000000  0.0000000  0.0000000 )


      isym =  3     120 deg rotation - cart. axis [1,1,1]        

 cryst.   s( 3) = (     0          1          0      )
                  (     0          0          1      )
                  (     1          0          0      )

 cart.    s( 3) = (  0.0000000  0.0000000  1.0000000 )
                  (  1.0000000  0.0000000  0.0000000 )
                  (  0.0000000  1.0000000  0.0000000 )


      isym =  4     inv. 180 deg rotation - cart. axis [1,-1,0]  

 cryst.   s( 4) = (     0          1          0      )
                  (     1          0          0      )
                  (     0          0          1      )

 cart.    s( 4) = (  0.0000000  1.0000000  0.0000000 )
                  (  1.0000000  0.0000000  0.0000000 )
                  (  0.0000000  0.0000000  1.0000000 )


      isym =  5     inv. 180 deg rotation - cart. axis [-1,0,1]  

 cryst.   s( 5) = (     0          0          1      )
                  (     0          1          0      )
                  (     1          0          0      )

 cart.    s( 5) = (  0.0000000  0.0000000  1.0000000 )
                  (  0.0000000  1.0000000  0.0000000 )
                  (  1.0000000  0.0000000  0.0000000 )


      isym =  6     inv. 180 deg rotation - cart. axis [0,1,-1]  

 cryst.   s( 6) = (     1          0          0      )
                  (     0          0          1      )
                  (     0          1          0      )

 cart.    s( 6) = (  1.0000000  0.0000000  0.0000000 )
                  (  0.0000000  0.0000000  1.0000000 )
                  (  0.0000000  1.0000000  0.0000000 )


     point group C_3v (3m)  
     there are  3 classes
     the character table:

       E     2C3   3s_v 
A_1    1.00  1.00  1.00
A_2    1.00  1.00 -1.00
E      2.00 -1.00  0.00

     the symmetry operations in each class and the name of the first element:

     E        1
          identity                                               
     2C3      2    3
          120 deg rotation - cart. axis [-1,-1,-1]               
     3s_v     4    5    6
          inv. 180 deg rotation - cart. axis [1,-1,0]            

   Cartesian axes

     site n.     atom                  positions (alat units)
         1        Ni     tau(   1) = (   0.0000000   0.0000000   0.0000000  )
         2        Pt     tau(   2) = (   0.0600000   0.0600000   0.0000000  )
         3        Pt     tau(   3) = (   0.0000000   0.0600000   0.0600000  )
         4        Pt     tau(   4) = (   0.0600000   0.0000000   0.0600000  )

   Crystallographic axes

     site n.     atom                  positions (cryst. coord.)
         1        Ni     tau(   1) = (  0.0000000  0.0000000  0.0000000  )
         2        Pt     tau(   2) = (  0.0600000  0.0600000  0.0000000  )
         3        Pt     tau(   3) = (  0.0000000  0.0600000  0.0600000  )
         4        Pt     tau(   4) = (  0.0600000  0.0000000  0.0600000  )

     number of k points=     1  Fermi-Dirac smearing, width (Ry)=  0.0127
                       cart. coord. in units 2pi/alat
        k(    1) = (   0.0000000   0.0000000   0.0000000), wk =   1.0000000

                       cryst. coord.
        k(    1) = (   0.0000000   0.0000000   0.0000000), wk =   1.0000000

     Dense  grid: 19180114 G-vectors     FFT dimensions: ( 432, 432, 432)

     Dynamical RAM for                 wfc:     457.27 MB

     Dynamical RAM for     wfc (w. buffer):    1371.81 MB

     Dynamical RAM for             U proj.:     182.91 MB

     Dynamical RAM for  U proj. (w. buff.):     548.73 MB

     Dynamical RAM for           str. fact:     146.33 MB

     Dynamical RAM for           local pot:       0.00 MB

     Dynamical RAM for          nlocal pot:    1042.58 MB

     Dynamical RAM for                qrad:       8.44 MB

     Dynamical RAM for          rho,v,vnew:    1361.64 MB

     Dynamical RAM for               rhoin:     453.88 MB

     Dynamical RAM for            rho*nmix:   -1754.68 MB

     Dynamical RAM for           G-vectors:     310.96 MB

     Dynamical RAM for          h,s,v(r/c):       0.23 MB

     Dynamical RAM for          <psi|beta>:       0.04 MB

     Dynamical RAM for                 psi:     914.54 MB

     Dynamical RAM for                hpsi:     914.54 MB

     Dynamical RAM for      wfcinit/wfcrot:     914.60 MB

     Estimated static dynamical RAM per process >       6.24 GB

     Estimated max dynamical RAM per process >       6.31 GB

     Estimated total dynamical RAM >      25.24 GB
     Generating pointlists ...
     new r_m :   0.0350 (alat units)  2.1001 (a.u.) for type    1
     new r_m :   0.0350 (alat units)  2.1001 (a.u.) for type    2

     Initial potential from superposition of free atoms

     starting charge      71.9993, renormalised to      72.0000

     negative rho (up, down):  6.435E-04 4.290E-04

     HUBBARD ENERGY =    0.3087  (Ry)

     STARTING HUBBARD OCCUPATIONS:

     =================== HUBBARD OCCUPATIONS ===================
     ------------------------ ATOM    1 ------------------------
     Tr[ns(  1)] (up, down, total) =   5.00000  3.00000  8.00000
     Atomic magnetic moment for atom   1 =   2.00000
     SPIN  1
     eigenvalues:
       1.000  1.000  1.000  1.000  1.000
     eigenvectors (columns):
       1.000  0.000  0.000  0.000  0.000
       0.000  1.000  0.000  0.000  0.000
       0.000  0.000  1.000  0.000  0.000
       0.000  0.000  0.000  1.000  0.000
       0.000  0.000  0.000  0.000  1.000
     occupation matrix ns (before diag.):
       1.000  0.000  0.000  0.000  0.000
       0.000  1.000  0.000  0.000  0.000
       0.000  0.000  1.000  0.000  0.000
       0.000  0.000  0.000  1.000  0.000
       0.000  0.000  0.000  0.000  1.000
     SPIN  2
     eigenvalues:
       0.600  0.600  0.600  0.600  0.600
     eigenvectors (columns):
       1.000  0.000  0.000  0.000  0.000
       0.000  1.000  0.000  0.000  0.000
       0.000  0.000  1.000  0.000  0.000
       0.000  0.000  0.000  1.000  0.000
       0.000  0.000  0.000  0.000  1.000
     occupation matrix ns (before diag.):
       0.600  0.000  0.000  0.000  0.000
       0.000  0.600  0.000  0.000  0.000
       0.000  0.000  0.600  0.000  0.000
       0.000  0.000  0.000  0.600  0.000
       0.000  0.000  0.000  0.000  0.600
     ------------------------ ATOM    2 ------------------------
     Tr[ns(  2)] (up, down, total) =   5.00000  4.00000  9.00000
     Atomic magnetic moment for atom   2 =   1.00000
     SPIN  1
     eigenvalues:
       1.000  1.000  1.000  1.000  1.000
     eigenvectors (columns):
       1.000  0.000  0.000  0.000  0.000
       0.000  1.000  0.000  0.000  0.000
       0.000  0.000  1.000  0.000  0.000
       0.000  0.000  0.000  1.000  0.000
       0.000  0.000  0.000  0.000  1.000
     occupation matrix ns (before diag.):
       1.000  0.000  0.000  0.000  0.000
       0.000  1.000  0.000  0.000  0.000
       0.000  0.000  1.000  0.000  0.000
       0.000  0.000  0.000  1.000  0.000
       0.000  0.000  0.000  0.000  1.000
     SPIN  2
     eigenvalues:
       0.800  0.800  0.800  0.800  0.800
     eigenvectors (columns):
       1.000  0.000  0.000  0.000  0.000
       0.000  1.000  0.000  0.000  0.000
       0.000  0.000  1.000  0.000  0.000
       0.000  0.000  0.000  1.000  0.000
       0.000  0.000  0.000  0.000  1.000
     occupation matrix ns (before diag.):
       0.800  0.000  0.000  0.000  0.000
       0.000  0.800  0.000  0.000  0.000
       0.000  0.000  0.800  0.000  0.000
       0.000  0.000  0.000  0.800  0.000
       0.000  0.000  0.000  0.000  0.800
     ------------------------ ATOM    3 ------------------------
     Tr[ns(  3)] (up, down, total) =   5.00000  4.00000  9.00000
     Atomic magnetic moment for atom   3 =   1.00000
     SPIN  1
     eigenvalues:
       1.000  1.000  1.000  1.000  1.000
     eigenvectors (columns):
       1.000  0.000  0.000  0.000  0.000
       0.000  1.000  0.000  0.000  0.000
       0.000  0.000  1.000  0.000  0.000
       0.000  0.000  0.000  1.000  0.000
       0.000  0.000  0.000  0.000  1.000
     occupation matrix ns (before diag.):
       1.000  0.000  0.000  0.000  0.000
       0.000  1.000  0.000  0.000  0.000
       0.000  0.000  1.000  0.000  0.000
       0.000  0.000  0.000  1.000  0.000
       0.000  0.000  0.000  0.000  1.000
     SPIN  2
     eigenvalues:
       0.800  0.800  0.800  0.800  0.800
     eigenvectors (columns):
       1.000  0.000  0.000  0.000  0.000
       0.000  1.000  0.000  0.000  0.000
       0.000  0.000  1.000  0.000  0.000
       0.000  0.000  0.000  1.000  0.000
       0.000  0.000  0.000  0.000  1.000
     occupation matrix ns (before diag.):
       0.800  0.000  0.000  0.000  0.000
       0.000  0.800  0.000  0.000  0.000
       0.000  0.000  0.800  0.000  0.000
       0.000  0.000  0.000  0.800  0.000
       0.000  0.000  0.000  0.000  0.800
     ------------------------ ATOM    4 ------------------------
     Tr[ns(  4)] (up, down, total) =   5.00000  4.00000  9.00000
     Atomic magnetic moment for atom   4 =   1.00000
     SPIN  1
     eigenvalues:
       1.000  1.000  1.000  1.000  1.000
     eigenvectors (columns):
       1.000  0.000  0.000  0.000  0.000
       0.000  1.000  0.000  0.000  0.000
       0.000  0.000  1.000  0.000  0.000
       0.000  0.000  0.000  1.000  0.000
       0.000  0.000  0.000  0.000  1.000
     occupation matrix ns (before diag.):
       1.000  0.000  0.000  0.000  0.000
       0.000  1.000  0.000  0.000  0.000
       0.000  0.000  1.000  0.000  0.000
       0.000  0.000  0.000  1.000  0.000
       0.000  0.000  0.000  0.000  1.000
     SPIN  2
     eigenvalues:
       0.800  0.800  0.800  0.800  0.800
     eigenvectors (columns):
       1.000  0.000  0.000  0.000  0.000
       0.000  1.000  0.000  0.000  0.000
       0.000  0.000  1.000  0.000  0.000
       0.000  0.000  0.000  1.000  0.000
       0.000  0.000  0.000  0.000  1.000
     occupation matrix ns (before diag.):
       0.800  0.000  0.000  0.000  0.000
       0.000  0.800  0.000  0.000  0.000
       0.000  0.000  0.800  0.000  0.000
       0.000  0.000  0.000  0.800  0.000
       0.000  0.000  0.000  0.000  0.800

     Number of occupied Hubbard levels =   35.0000

     Atomic wfc used for Hubbard projectors are NOT orthogonalized

     Starting wfcs are random

     total cpu time spent up to now is       41.9 secs

     Self-consistent Calculation

     iteration #  1     ecut=   120.00 Ry     beta= 0.20
     Davidson diagonalization with overlap

---- Real-time Memory Report at c_bands before calling an iterative solver
          6859 MiB given to the printing process from OS
         -1376 MiB allocation reported by mallinfo(arena+hblkhd)
        481257 MiB available memory on the node where the printing process lives
------------------
     ethr =  1.00E-02,  avg # of iterations = 29.5

     =================== HUBBARD OCCUPATIONS ===================
     ------------------------ ATOM    1 ------------------------
     Tr[ns(  1)] (up, down, total) =   4.94325  4.87296  9.81621
     Atomic magnetic moment for atom   1 =   0.07030
     SPIN  1
     eigenvalues:
       0.974  0.974  0.999  0.999  0.999
     eigenvectors (columns):
       0.376 -0.326  0.679  0.540 -0.000
       0.669  0.232  0.060 -0.402  0.577
      -0.134 -0.696 -0.378  0.149  0.577
       0.326  0.376 -0.540  0.679  0.000
       0.535 -0.464 -0.318 -0.253 -0.577
     occupation matrix ns (before diag.):
       0.992 -0.004 -0.004  0.000 -0.009
      -0.004  0.986  0.006 -0.008 -0.006
      -0.004  0.006  0.986  0.008 -0.006
       0.000 -0.008  0.008  0.992 -0.000
      -0.009 -0.006 -0.006 -0.000  0.986
     SPIN  2
     eigenvalues:
       0.950  0.950  0.990  0.990  0.993
     eigenvectors (columns):
      -0.065 -0.967 -0.240  0.045  0.000
      -0.179 -0.088  0.263 -0.747 -0.577
       0.166 -0.111  0.516  0.601 -0.577
      -0.967  0.065  0.045  0.240 -0.000
      -0.013 -0.199  0.778 -0.146  0.577
     occupation matrix ns (before diag.):
       0.952 -0.004 -0.004  0.000 -0.008
      -0.004  0.990  0.002 -0.007 -0.002
      -0.004  0.002  0.990  0.007 -0.002
       0.000 -0.007  0.007  0.952 -0.000
      -0.008 -0.002 -0.002 -0.000  0.990
     ------------------------ ATOM    2 ------------------------
     Tr[ns(  2)] (up, down, total) =   4.64644  4.26911  8.91555
     Atomic magnetic moment for atom   2 =   0.37733
     SPIN  1
     eigenvalues:
       0.717  0.974  0.978  0.985  0.993
     eigenvectors (columns):
      -0.000 -0.471  0.000  0.412  0.780
      -0.395 -0.437  0.586  0.337 -0.442
       0.395 -0.437 -0.586  0.337 -0.442
       0.829  0.000  0.559 -0.000 -0.000
       0.000  0.629 -0.000  0.777 -0.030
     occupation matrix ns (before diag.):
       0.988 -0.005 -0.005  0.000  0.003
      -0.005  0.940  0.044  0.085  0.003
      -0.005  0.044  0.940 -0.085  0.003
       0.000  0.085 -0.085  0.798 -0.000
       0.003  0.003  0.003 -0.000  0.981
     SPIN  2
     eigenvalues:
       0.703  0.722  0.907  0.956  0.981
     eigenvectors (columns):
       0.000 -0.000 -0.586 -0.379  0.716
      -0.158 -0.689 -0.518  0.442 -0.190
       0.158  0.689 -0.518  0.442 -0.190
      -0.975  0.224 -0.000 -0.000 -0.000
      -0.000  0.000  0.346  0.682  0.645
     occupation matrix ns (before diag.):
       0.952 -0.018 -0.018  0.000  0.021
      -0.018  0.826  0.106 -0.003  0.006
      -0.018  0.106  0.826  0.003  0.006
       0.000 -0.003  0.003  0.704 -0.000
       0.021  0.006  0.006 -0.000  0.961
     ------------------------ ATOM    3 ------------------------
     Tr[ns(  3)] (up, down, total) =   4.64644  4.26911  8.91555
     Atomic magnetic moment for atom   3 =   0.37733
     SPIN  1
     eigenvalues:
       0.717  0.974  0.978  0.985  0.993
     eigenvectors (columns):
       0.718 -0.235 -0.484 -0.206  0.390
      -0.395  0.437 -0.586  0.337  0.442
      -0.000  0.629  0.000 -0.777 -0.030
       0.415  0.408 -0.279  0.357 -0.676
      -0.395 -0.437 -0.586 -0.337 -0.442
     occupation matrix ns (before diag.):
       0.846  0.077  0.002 -0.082  0.071
       0.077  0.940 -0.003  0.038 -0.044
       0.002 -0.003  0.981 -0.003  0.003
      -0.082  0.038 -0.003  0.940  0.047
       0.071 -0.044  0.003  0.047  0.940
     SPIN  2
     eigenvalues:
       0.703  0.722  0.907  0.956  0.981
     eigenvectors (columns):
       0.844 -0.194  0.293  0.190  0.358
       0.158  0.689 -0.518  0.442  0.190
      -0.000  0.000 -0.346 -0.682  0.645
       0.487 -0.112 -0.508 -0.328 -0.620
       0.158  0.689  0.518 -0.442 -0.190
     occupation matrix ns (before diag.):
       0.766  0.007  0.011 -0.107 -0.012
       0.007  0.826 -0.006 -0.017 -0.106
       0.011 -0.006  0.961 -0.018  0.006
      -0.107 -0.017 -0.018  0.890  0.014
      -0.012 -0.106  0.006  0.014  0.826
     ------------------------ ATOM    4 ------------------------
     Tr[ns(  4)] (up, down, total) =   4.64644  4.26911  8.91555
     Atomic magnetic moment for atom   4 =   0.37733
     SPIN  1
     eigenvalues:
       0.717  0.974  0.978  0.985  0.993
     eigenvectors (columns):
       0.718 -0.235 -0.484 -0.206  0.390
       0.000  0.629  0.000 -0.777 -0.030
      -0.395  0.437 -0.586  0.337  0.442
      -0.415 -0.408  0.279 -0.357  0.676
      -0.395 -0.437 -0.586 -0.337 -0.442
     occupation matrix ns (before diag.):
       0.846  0.002  0.077  0.082  0.071
       0.002  0.981 -0.003  0.003  0.003
       0.077 -0.003  0.940 -0.038 -0.044
       0.082  0.003 -0.038  0.940 -0.047
       0.071  0.003 -0.044 -0.047  0.940
     SPIN  2
     eigenvalues:
       0.703  0.722  0.907  0.956  0.981
     eigenvectors (columns):
       0.844 -0.194  0.293  0.190  0.358
       0.000 -0.000 -0.346 -0.682  0.645
       0.158  0.689 -0.518  0.442  0.190
      -0.487  0.112  0.508  0.328  0.620
       0.158  0.689  0.518 -0.442 -0.190
     occupation matrix ns (before diag.):
       0.766  0.011  0.007  0.107 -0.012
       0.011  0.961 -0.006  0.018  0.006
       0.007 -0.006  0.826  0.017 -0.106
       0.107  0.018  0.017  0.890 -0.014
      -0.012  0.006 -0.106 -0.014  0.826

     Number of occupied Hubbard levels =   36.5629

     negative rho (up, down):  4.464E-04 2.049E-04

     HUBBARD ENERGY =    0.2798  (Ry)

     total cpu time spent up to now is      355.6 secs

     total energy              =   -1117.31271843 Ry
     estimated scf accuracy    <       2.58778121 Ry

     total magnetization       =     1.88 Bohr mag/cell
     absolute magnetization    =     2.40 Bohr mag/cell

     iteration #  2     ecut=   120.00 Ry     beta= 0.20
     Davidson diagonalization with overlap

---- Real-time Memory Report at c_bands before calling an iterative solver
         11372 MiB given to the printing process from OS
         -1083 MiB allocation reported by mallinfo(arena+hblkhd)
        482498 MiB available memory on the node where the printing process lives
------------------
     ethr =  3.59E-03,  avg # of iterations =  4.5

     =================== HUBBARD OCCUPATIONS ===================
     ------------------------ ATOM    1 ------------------------
     Tr[ns(  1)] (up, down, total) =   4.82482  0.27544  5.10026
     Atomic magnetic moment for atom   1 =   4.54938
     SPIN  1
     eigenvalues:
       0.936  0.936  0.980  0.986  0.986
     eigenvectors (columns):
      -0.355  0.301 -0.000  0.664  0.585
      -0.680 -0.243 -0.577  0.075 -0.373
       0.130  0.711 -0.577 -0.360  0.121
      -0.301 -0.355  0.000 -0.585  0.664
      -0.551  0.468  0.577 -0.285 -0.251
     occupation matrix ns (before diag.):
       0.975 -0.008 -0.008  0.000 -0.017
      -0.008  0.958  0.011 -0.015 -0.011
      -0.008  0.011  0.958  0.015 -0.011
       0.000 -0.015  0.015  0.975 -0.000
      -0.017 -0.011 -0.011 -0.000  0.958
     SPIN  2
     eigenvalues:
       0.019  0.019  0.036  0.101  0.101
     eigenvectors (columns):
       0.298 -0.727 -0.000  0.547 -0.287
       0.500 -0.068  0.577 -0.027  0.641
      -0.309 -0.399  0.577 -0.542 -0.344
       0.727  0.298  0.000 -0.287 -0.547
       0.191 -0.467 -0.577 -0.569  0.298
     occupation matrix ns (before diag.):
       0.050 -0.016 -0.016  0.000 -0.033
      -0.016  0.058 -0.011 -0.028  0.011
      -0.016 -0.011  0.058  0.028  0.011
       0.000 -0.028  0.028  0.050 -0.000
      -0.033  0.011  0.011 -0.000  0.058
     ------------------------ ATOM    2 ------------------------
     Tr[ns(  2)] (up, down, total) =   4.70835  4.92924  9.63759
     Atomic magnetic moment for atom   2 =  -0.22090
     SPIN  1
     eigenvalues:
       0.733  0.988  0.994  0.996  0.997
     eigenvectors (columns):
       0.000  0.160 -0.969  0.000  0.188
       0.402 -0.043 -0.141  0.582 -0.692
      -0.402 -0.043 -0.141 -0.582 -0.692
      -0.823  0.000  0.000  0.568 -0.000
      -0.000  0.985  0.145 -0.000 -0.091
     occupation matrix ns (before diag.):
       0.994 -0.000 -0.000  0.000 -0.001
      -0.000  0.954  0.043  0.087  0.000
      -0.000  0.043  0.954 -0.087  0.000
       0.000  0.087 -0.087  0.818 -0.000
      -0.001  0.000  0.000 -0.000  0.988
     SPIN  2
     eigenvalues:
       0.972  0.981  0.987  0.993  0.996
     eigenvectors (columns):
      -0.566  0.000 -0.044 -0.000  0.823
      -0.295  0.450  0.620  0.545 -0.170
      -0.295 -0.450  0.620 -0.545 -0.170
       0.000  0.771 -0.000 -0.636 -0.000
       0.711 -0.000  0.479  0.000  0.515
     occupation matrix ns (before diag.):
       0.988 -0.004 -0.004  0.000  0.010
      -0.004  0.987 -0.001 -0.004  0.002
      -0.004 -0.001  0.987  0.004  0.002
       0.000 -0.004  0.004  0.986 -0.000
       0.010  0.002  0.002 -0.000  0.982
     ------------------------ ATOM    3 ------------------------
     Tr[ns(  3)] (up, down, total) =   4.70835  4.92924  9.63759
     Atomic magnetic moment for atom   3 =  -0.22090
     SPIN  1
     eigenvalues:
       0.733  0.988  0.994  0.996  0.997
     eigenvectors (columns):
      -0.713 -0.080  0.485 -0.492 -0.094
       0.402 -0.043 -0.141 -0.582 -0.692
       0.000 -0.985 -0.145 -0.000  0.091
      -0.411  0.138 -0.839 -0.284  0.163
       0.402  0.043  0.141 -0.582  0.692
     occupation matrix ns (before diag.):
       0.862  0.075 -0.000 -0.076  0.075
       0.075  0.954 -0.000  0.043 -0.043
      -0.000 -0.000  0.988  0.001  0.000
      -0.076  0.043  0.001  0.950  0.044
       0.075 -0.043  0.000  0.044  0.954
     SPIN  2
     eigenvalues:
       0.972  0.981  0.987  0.993  0.996
     eigenvectors (columns):
      -0.283 -0.668 -0.022  0.551 -0.411
       0.295 -0.450 -0.620 -0.545 -0.170
       0.711  0.000  0.479  0.000 -0.515
       0.491 -0.386  0.038  0.318  0.713
      -0.295 -0.450  0.620 -0.545  0.170
     occupation matrix ns (before diag.):
       0.986 -0.002  0.005 -0.001 -0.006
      -0.002  0.987 -0.002 -0.005  0.001
       0.005 -0.002  0.982 -0.009  0.002
      -0.001 -0.005 -0.009  0.988  0.001
      -0.006  0.001  0.002  0.001  0.987
     ------------------------ ATOM    4 ------------------------
     Tr[ns(  4)] (up, down, total) =   4.70835  4.92924  9.63759
     Atomic magnetic moment for atom   4 =  -0.22090
     SPIN  1
     eigenvalues:
       0.733  0.988  0.994  0.996  0.997
     eigenvectors (columns):
      -0.713 -0.080  0.485 -0.492 -0.094
      -0.000 -0.985 -0.145  0.000  0.091
       0.402 -0.043 -0.141 -0.582 -0.692
       0.411 -0.138  0.839  0.284 -0.163
       0.402  0.043  0.141 -0.582  0.692
     occupation matrix ns (before diag.):
       0.862 -0.000  0.075  0.076  0.075
      -0.000  0.988 -0.000 -0.001  0.000
       0.075 -0.000  0.954 -0.043 -0.043
       0.076 -0.001 -0.043  0.950 -0.044
       0.075  0.000 -0.043 -0.044  0.954
     SPIN  2
     eigenvalues:
       0.972  0.981  0.987  0.993  0.996
     eigenvectors (columns):
       0.283  0.668  0.022  0.551  0.411
      -0.711 -0.000 -0.479  0.000  0.515
      -0.295  0.450  0.620 -0.545  0.170
       0.491 -0.386  0.038 -0.318  0.713
       0.295  0.450 -0.620 -0.545 -0.170
     occupation matrix ns (before diag.):
       0.986  0.005 -0.002  0.001 -0.006
       0.005  0.982 -0.002  0.009  0.002
      -0.002 -0.002  0.987  0.005  0.001
       0.001  0.009  0.005  0.988 -0.001
      -0.006  0.002  0.001 -0.001  0.987

     Number of occupied Hubbard levels =   34.0130

     negative rho (up, down):  4.045E-04 1.855E-04

     HUBBARD ENERGY =    0.2814  (Ry)

     total cpu time spent up to now is      424.7 secs

     total energy              =   -1117.05181746 Ry
     estimated scf accuracy    <      12.26205596 Ry

     total magnetization       =     4.66 Bohr mag/cell
     absolute magnetization    =     5.74 Bohr mag/cell

     iteration #  3     ecut=   120.00 Ry     beta= 0.20
     Davidson diagonalization with overlap

---- Real-time Memory Report at c_bands before calling an iterative solver
         11665 MiB given to the printing process from OS
          -790 MiB allocation reported by mallinfo(arena+hblkhd)
        482299 MiB available memory on the node where the printing process lives
------------------
     ethr =  3.59E-03,  avg # of iterations =  4.0

     =================== HUBBARD OCCUPATIONS ===================
     ------------------------ ATOM    1 ------------------------
     Tr[ns(  1)] (up, down, total) =   4.99059  4.78006  9.77065
     Atomic magnetic moment for atom   1 =   0.21052
     SPIN  1
     eigenvalues:
       0.997  0.997  0.998  1.000  1.000
     eigenvectors (columns):
      -0.501 -0.269 -0.000 -0.366 -0.737
       0.021  0.672  0.577 -0.463 -0.029
       0.571 -0.354  0.577  0.257 -0.386
       0.269 -0.501 -0.000 -0.737  0.366
       0.592  0.318 -0.577 -0.206 -0.416
     occupation matrix ns (before diag.):
       0.999  0.001  0.001  0.000  0.001
       0.001  0.998  0.000  0.001 -0.000
       0.001  0.000  0.998 -0.001 -0.000
       0.000  0.001 -0.001  0.999 -0.000
       0.001 -0.000 -0.000 -0.000  0.998
     SPIN  2
     eigenvalues:
       0.912  0.912  0.985  0.985  0.985
     eigenvectors (columns):
       0.494  0.215 -0.000  0.363  0.760
      -0.078 -0.684 -0.577  0.438  0.034
      -0.553  0.409 -0.577 -0.249  0.362
      -0.215  0.494  0.000  0.760 -0.363
      -0.631 -0.274  0.577  0.190  0.397
     occupation matrix ns (before diag.):
       0.964  0.014  0.014  0.000  0.027
       0.014  0.951  0.017  0.024 -0.017
       0.014  0.017  0.951 -0.024 -0.017
       0.000  0.024 -0.024  0.964 -0.000
       0.027 -0.017 -0.017 -0.000  0.951
     ------------------------ ATOM    2 ------------------------
     Tr[ns(  2)] (up, down, total) =   4.93430  4.32627  9.26058
     Atomic magnetic moment for atom   2 =   0.60803
     SPIN  1
     eigenvalues:
       0.973  0.974  0.992  0.998  0.998
     eigenvectors (columns):
      -0.516 -0.000  0.213  0.000 -0.830
      -0.523 -0.516 -0.424 -0.483  0.216
      -0.523  0.516 -0.424  0.483  0.216
       0.000 -0.683 -0.000  0.730  0.000
       0.433  0.000 -0.771  0.000 -0.467
     occupation matrix ns (before diag.):
       0.991 -0.006 -0.006  0.000  0.007
      -0.006  0.983 -0.001 -0.009  0.004
      -0.006 -0.001  0.983  0.009  0.004
       0.000 -0.009  0.009  0.986 -0.000
       0.007  0.004  0.004 -0.000  0.990
     SPIN  2
     eigenvalues:
       0.656  0.847  0.876  0.961  0.986
     eigenvectors (columns):
       0.000 -0.000 -0.689 -0.210  0.693
      -0.575 -0.412 -0.355  0.586 -0.175
       0.575  0.412 -0.355  0.586 -0.175
      -0.582  0.813 -0.000 -0.000 -0.000
      -0.000  0.000  0.523  0.518  0.677
     occupation matrix ns (before diag.):
       0.933 -0.024 -0.024  0.000  0.043
      -0.024  0.831  0.110 -0.064  0.013
      -0.024  0.110  0.831  0.064  0.013
       0.000 -0.064  0.064  0.782 -0.000
       0.043  0.013  0.013 -0.000  0.950
     ------------------------ ATOM    3 ------------------------
     Tr[ns(  3)] (up, down, total) =   4.93430  4.32627  9.26058
     Atomic magnetic moment for atom   3 =   0.60803
     SPIN  1
     eigenvalues:
       0.973  0.974  0.992  0.998  0.998
     eigenvectors (columns):
       0.258 -0.592 -0.107  0.632  0.415
      -0.523 -0.516 -0.424 -0.483  0.216
      -0.433 -0.000  0.771  0.000  0.467
      -0.447 -0.342  0.185  0.365 -0.719
       0.523 -0.516  0.424 -0.483 -0.216
     occupation matrix ns (before diag.):
       0.988 -0.004  0.003 -0.002 -0.011
      -0.004  0.983 -0.004 -0.010  0.001
       0.003 -0.004  0.990 -0.006  0.004
      -0.002 -0.010 -0.006  0.990  0.001
      -0.011  0.001  0.004  0.001  0.983
     SPIN  2
     eigenvalues:
       0.656  0.847  0.876  0.961  0.986
     eigenvectors (columns):
       0.504 -0.704 -0.345  0.105  0.347
       0.575  0.412  0.355  0.586  0.175
      -0.000  0.000  0.523 -0.518  0.677
       0.291 -0.406  0.597 -0.182 -0.600
       0.575  0.412 -0.355 -0.586 -0.175
     occupation matrix ns (before diag.):
       0.820 -0.044  0.021 -0.065 -0.067
      -0.044  0.831 -0.013 -0.053 -0.110
       0.021 -0.013  0.950 -0.037  0.013
      -0.065 -0.053 -0.037  0.895 -0.011
      -0.067 -0.110  0.013 -0.011  0.831
     ------------------------ ATOM    4 ------------------------
     Tr[ns(  4)] (up, down, total) =   4.93430  4.32627  9.26058
     Atomic magnetic moment for atom   4 =   0.60803
     SPIN  1
     eigenvalues:
       0.973  0.974  0.992  0.998  0.998
     eigenvectors (columns):
       0.258 -0.592 -0.107  0.632  0.415
      -0.433  0.000  0.771  0.000  0.467
      -0.523 -0.516 -0.424 -0.483  0.216
       0.447  0.342 -0.185 -0.365  0.719
       0.523 -0.516  0.424 -0.483 -0.216
     occupation matrix ns (before diag.):
       0.988  0.003 -0.004  0.002 -0.011
       0.003  0.990 -0.004  0.006  0.004
      -0.004 -0.004  0.983  0.010  0.001
       0.002  0.006  0.010  0.990 -0.001
      -0.011  0.004  0.001 -0.001  0.983
     SPIN  2
     eigenvalues:
       0.656  0.847  0.876  0.961  0.986
     eigenvectors (columns):
       0.504 -0.704 -0.345  0.105  0.347
       0.000 -0.000  0.523 -0.518  0.677
       0.575  0.412  0.355  0.586  0.175
      -0.291  0.406 -0.597  0.182  0.600
       0.575  0.412 -0.355 -0.586 -0.175
     occupation matrix ns (before diag.):
       0.820  0.021 -0.044  0.065 -0.067
       0.021  0.950 -0.013  0.037  0.013
      -0.044 -0.013  0.831  0.053 -0.110
       0.065  0.037  0.053  0.895  0.011
      -0.067  0.013 -0.110  0.011  0.831

     Number of occupied Hubbard levels =   37.5524

     negative rho (up, down):  3.176E-04 1.445E-04

     HUBBARD ENERGY =    0.2734  (Ry)

     total cpu time spent up to now is      489.3 secs

     total energy              =   -1117.96510256 Ry
     estimated scf accuracy    <       1.45666533 Ry

     total magnetization       =     2.05 Bohr mag/cell
     absolute magnetization    =     2.77 Bohr mag/cell

     iteration #  4     ecut=   120.00 Ry     beta= 0.20
     Davidson diagonalization with overlap

---- Real-time Memory Report at c_bands before calling an iterative solver
         11959 MiB given to the printing process from OS
          -498 MiB allocation reported by mallinfo(arena+hblkhd)
        482080 MiB available memory on the node where the printing process lives
------------------
     ethr =  2.02E-03,  avg # of iterations =  1.5

     =================== HUBBARD OCCUPATIONS ===================
     ------------------------ ATOM    1 ------------------------
     Tr[ns(  1)] (up, down, total) =   4.98467  4.41920  9.40387
     Atomic magnetic moment for atom   1 =   0.56547
     SPIN  1
     eigenvalues:
       0.995  0.995  0.997  0.999  0.999
     eigenvectors (columns):
      -0.511 -0.253 -0.000 -0.354 -0.742
       0.043  0.670  0.577 -0.464 -0.037
       0.558 -0.372  0.577  0.264 -0.383
       0.253 -0.511 -0.000 -0.742  0.354
       0.601  0.298 -0.577 -0.200 -0.420
     occupation matrix ns (before diag.):
       0.998  0.001  0.001  0.000  0.002
       0.001  0.996  0.000  0.001 -0.000
       0.001  0.000  0.996 -0.001 -0.000
       0.000  0.001 -0.001  0.998 -0.000
       0.002 -0.000 -0.000 -0.000  0.996
     SPIN  2
     eigenvalues:
       0.786  0.786  0.948  0.948  0.952
     eigenvectors (columns):
       0.525  0.260  0.384  0.714  0.000
      -0.042 -0.661  0.478  0.014 -0.577
      -0.551  0.367 -0.251  0.407 -0.577
      -0.260  0.525  0.714 -0.384 -0.000
      -0.593 -0.294  0.227  0.421  0.577
     occupation matrix ns (before diag.):
       0.892  0.031  0.031  0.000  0.063
       0.031  0.878  0.037  0.055 -0.037
       0.031  0.037  0.878 -0.055 -0.037
       0.000  0.055 -0.055  0.892 -0.000
       0.063 -0.037 -0.037 -0.000  0.878
     ------------------------ ATOM    2 ------------------------
     Tr[ns(  2)] (up, down, total) =   4.93665  4.43070  9.36735
     Atomic magnetic moment for atom   2 =   0.50595
     SPIN  1
     eigenvalues:
       0.974  0.975  0.993  0.998  0.998
     eigenvectors (columns):
      -0.497  0.000  0.207 -0.000 -0.843
      -0.528  0.525 -0.422  0.474  0.208
      -0.528 -0.525 -0.422 -0.474  0.208
       0.000  0.670 -0.000 -0.742  0.000
       0.441 -0.000 -0.776 -0.000 -0.451
     occupation matrix ns (before diag.):
       0.992 -0.006 -0.006  0.000  0.006
      -0.006  0.984 -0.001 -0.008  0.004
      -0.006 -0.001  0.984  0.008  0.004
       0.000 -0.008  0.008  0.987 -0.000
       0.006  0.004  0.004 -0.000  0.990
     SPIN  2
     eigenvalues:
       0.657  0.875  0.935  0.973  0.992
     eigenvectors (columns):
       0.000  0.600  0.000  0.204 -0.773
      -0.577  0.392 -0.409 -0.568  0.154
       0.577  0.392  0.409 -0.568  0.154
      -0.579 -0.000  0.816  0.000  0.000
      -0.000 -0.576 -0.000 -0.560 -0.595
     occupation matrix ns (before diag.):
       0.949 -0.025 -0.025  0.000  0.043
      -0.025  0.847  0.097 -0.093  0.020
      -0.025  0.097  0.847  0.093  0.020
       0.000 -0.093  0.093  0.842 -0.000
       0.043  0.020  0.020 -0.000  0.947
     ------------------------ ATOM    3 ------------------------
     Tr[ns(  3)] (up, down, total) =   4.93665  4.43070  9.36735
     Atomic magnetic moment for atom   3 =   0.50595
     SPIN  1
     eigenvalues:
       0.974  0.975  0.993  0.998  0.998
     eigenvectors (columns):
       0.249 -0.581 -0.103  0.643  0.421
      -0.528 -0.525 -0.422 -0.474  0.208
      -0.441 -0.000  0.776  0.000  0.451
      -0.431 -0.335  0.179  0.371 -0.730
       0.528 -0.525  0.422 -0.474 -0.208
     occupation matrix ns (before diag.):
       0.988 -0.004  0.003 -0.002 -0.010
      -0.004  0.984 -0.004 -0.009  0.001
       0.003 -0.004  0.990 -0.005  0.004
      -0.002 -0.009 -0.005  0.991  0.001
      -0.010  0.001  0.004  0.001  0.984
     SPIN  2
     eigenvalues:
       0.657  0.875  0.935  0.973  0.992
     eigenvectors (columns):
      -0.501 -0.300  0.706  0.102  0.387
      -0.577  0.392 -0.409  0.568  0.154
       0.000  0.576 -0.000 -0.560  0.595
      -0.289  0.520  0.408 -0.177 -0.670
      -0.577 -0.392 -0.409 -0.568 -0.154
     occupation matrix ns (before diag.):
       0.868 -0.067  0.021 -0.046 -0.093
      -0.067  0.847 -0.020 -0.068 -0.097
       0.021 -0.020  0.947 -0.037  0.020
      -0.046 -0.068 -0.037  0.922 -0.024
      -0.093 -0.097  0.020 -0.024  0.847
     ------------------------ ATOM    4 ------------------------
     Tr[ns(  4)] (up, down, total) =   4.93665  4.43070  9.36735
     Atomic magnetic moment for atom   4 =   0.50595
     SPIN  1
     eigenvalues:
       0.974  0.975  0.993  0.998  0.998
     eigenvectors (columns):
       0.249 -0.581 -0.103  0.643  0.421
      -0.441  0.000  0.776  0.000  0.451
      -0.528 -0.525 -0.422 -0.474  0.208
       0.431  0.335 -0.179 -0.371  0.730
       0.528 -0.525  0.422 -0.474 -0.208
     occupation matrix ns (before diag.):
       0.988  0.003 -0.004  0.002 -0.010
       0.003  0.990 -0.004  0.005  0.004
      -0.004 -0.004  0.984  0.009  0.001
       0.002  0.005  0.009  0.991 -0.001
      -0.010  0.004  0.001 -0.001  0.984
     SPIN  2
     eigenvalues:
       0.657  0.875  0.935  0.973  0.992
     eigenvectors (columns):
      -0.501 -0.300  0.706  0.102  0.387
      -0.000  0.576 -0.000 -0.560  0.595
      -0.577  0.392 -0.409  0.568  0.154
       0.289 -0.520 -0.408  0.177  0.670
      -0.577 -0.392 -0.409 -0.568 -0.154
     occupation matrix ns (before diag.):
       0.868  0.021 -0.067  0.046 -0.093
       0.021  0.947 -0.020  0.037  0.020
      -0.067 -0.020  0.847  0.068 -0.097
       0.046  0.037  0.068  0.922  0.024
      -0.093  0.020 -0.097  0.024  0.847

     Number of occupied Hubbard levels =   37.5059

     negative rho (up, down):  2.072E-04 9.419E-05

     HUBBARD ENERGY =    0.2554  (Ry)

     total cpu time spent up to now is      552.7 secs

     total energy              =   -1118.03132455 Ry
     estimated scf accuracy    <       0.64783493 Ry

     total magnetization       =     2.12 Bohr mag/cell
     absolute magnetization    =     2.73 Bohr mag/cell

     iteration #  5     ecut=   120.00 Ry     beta= 0.20
     Davidson diagonalization with overlap

---- Real-time Memory Report at c_bands before calling an iterative solver
         12250 MiB given to the printing process from OS
          -205 MiB allocation reported by mallinfo(arena+hblkhd)
        481832 MiB available memory on the node where the printing process lives
------------------
     ethr =  9.00E-04,  avg # of iterations =  1.0

     =================== HUBBARD OCCUPATIONS ===================
     ------------------------ ATOM    1 ------------------------
     Tr[ns(  1)] (up, down, total) =   4.97158  3.91549  8.88707
     Atomic magnetic moment for atom   1 =   1.05608
     SPIN  1
     eigenvalues:
       0.991  0.991  0.995  0.997  0.997
     eigenvectors (columns):
      -0.490 -0.251 -0.000 -0.360 -0.753
       0.034  0.681  0.577 -0.448 -0.035
       0.572 -0.370  0.577  0.254 -0.371
       0.251 -0.490 -0.000 -0.753  0.360
       0.607  0.311 -0.577 -0.194 -0.406
     occupation matrix ns (before diag.):
       0.995  0.001  0.001  0.000  0.002
       0.001  0.994  0.001  0.002 -0.001
       0.001  0.001  0.994 -0.002 -0.001
       0.000  0.002 -0.002  0.995 -0.000
       0.002 -0.001 -0.001 -0.000  0.994
     SPIN  2
     eigenvalues:
       0.636  0.636  0.874  0.874  0.896
     eigenvectors (columns):
       0.524  0.243 -0.390 -0.717  0.000
      -0.059 -0.664 -0.472 -0.012 -0.577
      -0.545  0.383  0.246 -0.403 -0.577
      -0.243  0.524 -0.717  0.390 -0.000
      -0.604 -0.280 -0.226 -0.415  0.577
     occupation matrix ns (before diag.):
       0.794  0.046  0.046  0.000  0.091
       0.046  0.776  0.060  0.079 -0.060
       0.046  0.060  0.776 -0.079 -0.060
       0.000  0.079 -0.079  0.794 -0.000
       0.091 -0.060 -0.060 -0.000  0.776
     ------------------------ ATOM    2 ------------------------
     Tr[ns(  2)] (up, down, total) =   4.93972  4.52450  9.46422
     Atomic magnetic moment for atom   2 =   0.41521
     SPIN  1
     eigenvalues:
       0.975  0.976  0.993  0.998  0.998
     eigenvectors (columns):
      -0.470 -0.000  0.197  0.000 -0.860
      -0.524 -0.532 -0.436 -0.466  0.187
      -0.524  0.532 -0.436  0.466  0.187
       0.000 -0.659 -0.000  0.752  0.000
       0.478  0.000 -0.762  0.000 -0.436
     occupation matrix ns (before diag.):
       0.993 -0.005 -0.005  0.000  0.006
      -0.005  0.985 -0.001 -0.007  0.004
      -0.005 -0.001  0.985  0.007  0.004
       0.000 -0.007  0.007  0.988 -0.000
       0.006  0.004  0.004 -0.000  0.990
     SPIN  2
     eigenvalues:
       0.681  0.888  0.979  0.982  0.994
     eigenvectors (columns):
      -0.000 -0.519  0.204 -0.000  0.830
       0.580 -0.423 -0.552  0.405 -0.129
      -0.580 -0.423 -0.552 -0.405 -0.129
       0.572  0.000 -0.000 -0.820 -0.000
       0.000  0.611 -0.591  0.000  0.527
     occupation matrix ns (before diag.):
       0.965 -0.022 -0.022  0.000  0.036
      -0.022  0.863  0.084 -0.100  0.023
      -0.022  0.084  0.863  0.100  0.023
       0.000 -0.100  0.100  0.883 -0.000
       0.036  0.023  0.023 -0.000  0.949
     ------------------------ ATOM    3 ------------------------
     Tr[ns(  3)] (up, down, total) =   4.93972  4.52450  9.46422
     Atomic magnetic moment for atom   3 =   0.41521
     SPIN  1
     eigenvalues:
       0.975  0.976  0.993  0.998  0.998
     eigenvectors (columns):
      -0.235  0.570 -0.099  0.652  0.430
       0.524  0.532 -0.436 -0.466  0.187
       0.478  0.000  0.762  0.000  0.436
       0.407  0.329  0.171  0.376 -0.745
      -0.524  0.532  0.436 -0.466 -0.187
     occupation matrix ns (before diag.):
       0.989 -0.004  0.003 -0.002 -0.009
      -0.004  0.985 -0.004 -0.008  0.001
       0.003 -0.004  0.990 -0.005  0.004
      -0.002 -0.008 -0.005  0.991  0.001
      -0.009  0.001  0.004  0.001  0.985
     SPIN  2
     eigenvalues:
       0.681  0.888  0.979  0.982  0.994
     eigenvectors (columns):
       0.496  0.259  0.102  0.710  0.415
       0.580 -0.423  0.552 -0.405  0.129
      -0.000 -0.611 -0.591  0.000  0.527
       0.286 -0.449 -0.176  0.410 -0.719
       0.580  0.423 -0.552 -0.405 -0.129
     occupation matrix ns (before diag.):
       0.904 -0.076  0.018 -0.035 -0.097
      -0.076  0.863 -0.023 -0.069 -0.084
       0.018 -0.023  0.949 -0.031  0.023
      -0.035 -0.069 -0.031  0.945 -0.031
      -0.097 -0.084  0.023 -0.031  0.863
     ------------------------ ATOM    4 ------------------------
     Tr[ns(  4)] (up, down, total) =   4.93972  4.52450  9.46422
     Atomic magnetic moment for atom   4 =   0.41521
     SPIN  1
     eigenvalues:
       0.975  0.976  0.993  0.998  0.998
     eigenvectors (columns):
      -0.235  0.570 -0.099  0.652  0.430
       0.478 -0.000  0.762  0.000  0.436
       0.524  0.532 -0.436 -0.466  0.187
      -0.407 -0.329 -0.171 -0.376  0.745
      -0.524  0.532  0.436 -0.466 -0.187
     occupation matrix ns (before diag.):
       0.989  0.003 -0.004  0.002 -0.009
       0.003  0.990 -0.004  0.005  0.004
      -0.004 -0.004  0.985  0.008  0.001
       0.002  0.005  0.008  0.991 -0.001
      -0.009  0.004  0.001 -0.001  0.985
     SPIN  2
     eigenvalues:
       0.681  0.888  0.979  0.982  0.994
     eigenvectors (columns):
       0.496  0.259 -0.102 -0.710  0.415
       0.000 -0.611  0.591 -0.000  0.527
       0.580 -0.423 -0.552  0.405  0.129
      -0.286  0.449 -0.176  0.410  0.719
       0.580  0.423  0.552  0.405 -0.129
     occupation matrix ns (before diag.):
       0.904  0.018 -0.076  0.035 -0.097
       0.018  0.949 -0.023  0.031  0.023
      -0.076 -0.023  0.863  0.069 -0.084
       0.035  0.031  0.069  0.945  0.031
      -0.097  0.023 -0.084  0.031  0.863

     Number of occupied Hubbard levels =   37.2797

     negative rho (up, down):  7.994E-05 3.664E-05

     HUBBARD ENERGY =    0.2163  (Ry)

     total cpu time spent up to now is      613.1 secs

     total energy              =   -1118.12540615 Ry
     estimated scf accuracy    <       0.15503831 Ry

     total magnetization       =     2.48 Bohr mag/cell
     absolute magnetization    =     2.91 Bohr mag/cell

     iteration #  6     ecut=   120.00 Ry     beta= 0.20
     Davidson diagonalization with overlap

---- Real-time Memory Report at c_bands before calling an iterative solver
         12543 MiB given to the printing process from OS
            87 MiB allocation reported by mallinfo(arena+hblkhd)
        481563 MiB available memory on the node where the printing process lives
------------------
     ethr =  2.15E-04,  avg # of iterations =  1.5

     =================== HUBBARD OCCUPATIONS ===================
     ------------------------ ATOM    1 ------------------------
     Tr[ns(  1)] (up, down, total) =   4.96444  3.94695  8.91139
     Atomic magnetic moment for atom   1 =   1.01749
     SPIN  1
     eigenvalues:
       0.989  0.989  0.994  0.996  0.996
     eigenvectors (columns):
       0.477  0.213  0.000 -0.316 -0.792
      -0.072 -0.693  0.577 -0.422 -0.061
      -0.564  0.408  0.577  0.264 -0.335
      -0.213  0.477 -0.000 -0.792  0.316
      -0.636 -0.284 -0.577 -0.158 -0.396
     occupation matrix ns (before diag.):
       0.994  0.001  0.001  0.000  0.002
       0.001  0.992  0.001  0.002 -0.001
       0.001  0.001  0.992 -0.002 -0.001
       0.000  0.002 -0.002  0.994 -0.000
       0.002 -0.001 -0.001 -0.000  0.992
     SPIN  2
     eigenvalues:
       0.595  0.595  0.906  0.906  0.945
     eigenvectors (columns):
      -0.465  0.192 -0.339 -0.795  0.000
       0.092 -0.700 -0.408 -0.049 -0.577
       0.560  0.430  0.247 -0.328 -0.577
       0.192  0.465 -0.795  0.339 -0.000
       0.652 -0.270 -0.161 -0.378  0.577
     occupation matrix ns (before diag.):
       0.827  0.055  0.055  0.000  0.110
       0.055  0.764  0.090  0.096 -0.090
       0.055  0.090  0.764 -0.096 -0.090
       0.000  0.096 -0.096  0.827 -0.000
       0.110 -0.090 -0.090 -0.000  0.764
     ------------------------ ATOM    2 ------------------------
     Tr[ns(  2)] (up, down, total) =   4.93302  4.52662  9.45964
     Atomic magnetic moment for atom   2 =   0.40639
     SPIN  1
     eigenvalues:
       0.972  0.975  0.993  0.997  0.997
     eigenvectors (columns):
      -0.435 -0.000  0.202 -0.877 -0.000
      -0.516 -0.538 -0.459  0.150 -0.459
      -0.516  0.538 -0.459  0.150  0.459
       0.000 -0.649 -0.000 -0.000  0.761
       0.527  0.000 -0.733 -0.430 -0.000
     occupation matrix ns (before diag.):
       0.992 -0.005 -0.005  0.000  0.006
      -0.005  0.983 -0.001 -0.008  0.005
      -0.005 -0.001  0.983  0.008  0.005
       0.000 -0.008  0.008  0.987 -0.000
       0.006  0.005  0.005 -0.000  0.988
     SPIN  2
     eigenvalues:
       0.678  0.883  0.983  0.989  0.994
     eigenvectors (columns):
       0.000 -0.471  0.233  0.000  0.851
      -0.587 -0.422 -0.562 -0.394 -0.079
       0.587 -0.422 -0.562  0.394 -0.079
      -0.558  0.000 -0.000  0.830 -0.000
      -0.000  0.650 -0.560 -0.000  0.513
     occupation matrix ns (before diag.):
       0.969 -0.021 -0.021  0.000  0.036
      -0.021  0.861  0.086 -0.102  0.027
      -0.021  0.086  0.861  0.102  0.027
       0.000 -0.102  0.102  0.892 -0.000
       0.036  0.027  0.027 -0.000  0.944
     ------------------------ ATOM    3 ------------------------
     Tr[ns(  3)] (up, down, total) =   4.93302  4.52662  9.45964
     Atomic magnetic moment for atom   3 =   0.40639
     SPIN  1
     eigenvalues:
       0.972  0.975  0.993  0.997  0.997
     eigenvectors (columns):
      -0.218 -0.562  0.101  0.439  0.659
       0.516 -0.538  0.459  0.150 -0.459
       0.527 -0.000 -0.733  0.430 -0.000
       0.377 -0.324 -0.175 -0.760  0.380
      -0.516 -0.538 -0.459 -0.150 -0.459
     occupation matrix ns (before diag.):
       0.989 -0.004  0.003 -0.002 -0.009
      -0.004  0.983 -0.005 -0.008  0.001
       0.003 -0.005  0.988 -0.005  0.005
      -0.002 -0.008 -0.005  0.991  0.001
      -0.009  0.001  0.005  0.001  0.983
     SPIN  2
     eigenvalues:
       0.678  0.883  0.983  0.989  0.994
     eigenvectors (columns):
       0.483  0.235  0.117  0.719  0.425
       0.587 -0.422  0.562 -0.394  0.079
      -0.000 -0.650 -0.560  0.000  0.513
       0.279 -0.408 -0.202  0.415 -0.737
       0.587  0.422 -0.562 -0.394 -0.079
     occupation matrix ns (before diag.):
       0.911 -0.078  0.018 -0.033 -0.099
      -0.078  0.861 -0.027 -0.069 -0.086
       0.018 -0.027  0.944 -0.031  0.027
      -0.033 -0.069 -0.031  0.950 -0.033
      -0.099 -0.086  0.027 -0.033  0.861
     ------------------------ ATOM    4 ------------------------
     Tr[ns(  4)] (up, down, total) =   4.93302  4.52662  9.45964
     Atomic magnetic moment for atom   4 =   0.40639
     SPIN  1
     eigenvalues:
       0.972  0.975  0.993  0.997  0.997
     eigenvectors (columns):
      -0.218 -0.562  0.101  0.439  0.659
       0.527  0.000 -0.733  0.430 -0.000
       0.516 -0.538  0.459  0.150 -0.459
      -0.377  0.324  0.175  0.760 -0.380
      -0.516 -0.538 -0.459 -0.150 -0.459
     occupation matrix ns (before diag.):
       0.989  0.003 -0.004  0.002 -0.009
       0.003  0.988 -0.005  0.005  0.005
      -0.004 -0.005  0.983  0.008  0.001
       0.002  0.005  0.008  0.991 -0.001
      -0.009  0.005  0.001 -0.001  0.983
     SPIN  2
     eigenvalues:
       0.678  0.883  0.983  0.989  0.994
     eigenvectors (columns):
       0.483  0.235 -0.117 -0.719  0.425
       0.000 -0.650  0.560 -0.000  0.513
       0.587 -0.422 -0.562  0.394  0.079
      -0.279  0.408 -0.202  0.415  0.737
       0.587  0.422  0.562  0.394 -0.079
     occupation matrix ns (before diag.):
       0.911  0.018 -0.078  0.033 -0.099
       0.018  0.944 -0.027  0.031  0.027
      -0.078 -0.027  0.861  0.069 -0.086
       0.033  0.031  0.069  0.950  0.033
      -0.099  0.027 -0.086  0.033  0.861

     Number of occupied Hubbard levels =   37.2903

     negative rho (up, down):  8.873E-06 4.328E-06

     HUBBARD ENERGY =    0.1828  (Ry)

     total cpu time spent up to now is      671.9 secs

     total energy              =   -1118.15072649 Ry
     estimated scf accuracy    <       0.04491646 Ry

     total magnetization       =     2.37 Bohr mag/cell
     absolute magnetization    =     2.75 Bohr mag/cell

     iteration #  7     ecut=   120.00 Ry     beta= 0.20
     Davidson diagonalization with overlap

---- Real-time Memory Report at c_bands before calling an iterative solver
         12835 MiB given to the printing process from OS
           379 MiB allocation reported by mallinfo(arena+hblkhd)
        481265 MiB available memory on the node where the printing process lives
------------------
     ethr =  6.24E-05,  avg # of iterations =  3.5

     =================== HUBBARD OCCUPATIONS ===================
     ------------------------ ATOM    1 ------------------------
     Tr[ns(  1)] (up, down, total) =   4.96113  3.93780  8.89894
     Atomic magnetic moment for atom   1 =   1.02333
     SPIN  1
     eigenvalues:
       0.988  0.988  0.993  0.996  0.996
     eigenvectors (columns):
       0.481 -0.213  0.000 -0.355 -0.773
      -0.075  0.690  0.577 -0.428 -0.040
      -0.560 -0.410  0.577  0.249 -0.351
      -0.213 -0.481 -0.000 -0.773  0.355
      -0.635  0.280 -0.577 -0.179 -0.391
     occupation matrix ns (before diag.):
       0.994  0.001  0.001  0.000  0.003
       0.001  0.991  0.001  0.002 -0.001
       0.001  0.001  0.991 -0.002 -0.001
       0.000  0.002 -0.002  0.994 -0.000
       0.003 -0.001 -0.001 -0.000  0.991
     SPIN  2
     eigenvalues:
       0.543  0.543  0.942  0.942  0.969
     eigenvectors (columns):
      -0.427  0.177 -0.369 -0.806  0.000
       0.094 -0.718 -0.376 -0.035 -0.577
       0.575  0.441  0.218 -0.308 -0.577
       0.177  0.427 -0.806  0.369 -0.000
       0.669 -0.277 -0.157 -0.343  0.577
     occupation matrix ns (before diag.):
       0.856  0.067  0.067  0.000  0.133
       0.067  0.742  0.114  0.116 -0.114
       0.067  0.114  0.742 -0.116 -0.114
       0.000  0.116 -0.116  0.856 -0.000
       0.133 -0.114 -0.114 -0.000  0.742
     ------------------------ ATOM    2 ------------------------
     Tr[ns(  2)] (up, down, total) =   4.93429  4.56937  9.50366
     Atomic magnetic moment for atom   2 =   0.36493
     SPIN  1
     eigenvalues:
       0.973  0.975  0.993  0.997  0.997
     eigenvectors (columns):
      -0.450  0.000  0.179 -0.875  0.000
      -0.502  0.544 -0.471  0.162  0.452
      -0.502 -0.544 -0.471  0.162 -0.452
       0.000  0.639 -0.000 -0.000 -0.769
       0.542 -0.000 -0.724 -0.427  0.000
     occupation matrix ns (before diag.):
       0.992 -0.005 -0.005  0.000  0.006
      -0.005  0.983 -0.000 -0.008  0.005
      -0.005 -0.000  0.983  0.008  0.005
       0.000 -0.008  0.008  0.988 -0.000
       0.006  0.005  0.005 -0.000  0.988
     SPIN  2
     eigenvalues:
       0.701  0.892  0.987  0.994  0.995
     eigenvectors (columns):
       0.000 -0.448 -0.200  0.000  0.871
      -0.591 -0.420  0.562 -0.388 -0.087
       0.591 -0.420  0.562  0.388 -0.087
      -0.549  0.000  0.000  0.836 -0.000
      -0.000  0.668  0.572  0.000  0.475
     occupation matrix ns (before diag.):
       0.974 -0.019 -0.019  0.000  0.032
      -0.019  0.871  0.082 -0.095  0.026
      -0.019  0.082  0.871  0.095  0.026
       0.000 -0.095  0.095  0.906 -0.000
       0.032  0.026  0.026 -0.000  0.946
     ------------------------ ATOM    3 ------------------------
     Tr[ns(  3)] (up, down, total) =   4.93429  4.56937  9.50366
     Atomic magnetic moment for atom   3 =   0.36493
     SPIN  1
     eigenvalues:
       0.973  0.975  0.993  0.997  0.997
     eigenvectors (columns):
       0.225 -0.554  0.090  0.437  0.666
      -0.502 -0.544  0.471  0.162 -0.452
      -0.542 -0.000 -0.724  0.427 -0.000
      -0.390 -0.320 -0.155 -0.758  0.385
       0.502 -0.544 -0.471 -0.162 -0.452
     occupation matrix ns (before diag.):
       0.989 -0.004  0.003 -0.002 -0.009
      -0.004  0.983 -0.005 -0.008  0.000
       0.003 -0.005  0.988 -0.005  0.005
      -0.002 -0.008 -0.005  0.991  0.001
      -0.009  0.000  0.005  0.001  0.983
     SPIN  2
     eigenvalues:
       0.701  0.892  0.987  0.994  0.995
     eigenvectors (columns):
       0.475  0.224  0.100  0.724  0.436
       0.591 -0.420  0.562 -0.388  0.087
      -0.000 -0.668 -0.572  0.000  0.475
       0.274 -0.388 -0.173  0.418 -0.754
       0.591  0.420 -0.562 -0.388 -0.087
     occupation matrix ns (before diag.):
       0.923 -0.073  0.016 -0.030 -0.091
      -0.073  0.871 -0.026 -0.063 -0.082
       0.016 -0.026  0.946 -0.028  0.026
      -0.030 -0.063 -0.028  0.957 -0.031
      -0.091 -0.082  0.026 -0.031  0.871
     ------------------------ ATOM    4 ------------------------
     Tr[ns(  4)] (up, down, total) =   4.93429  4.56937  9.50366
     Atomic magnetic moment for atom   4 =   0.36493
     SPIN  1
     eigenvalues:
       0.973  0.975  0.993  0.997  0.997
     eigenvectors (columns):
       0.225 -0.554  0.090  0.437  0.666
      -0.542  0.000 -0.724  0.427 -0.000
      -0.502 -0.544  0.471  0.162 -0.452
       0.390  0.320  0.155  0.758 -0.385
       0.502 -0.544 -0.471 -0.162 -0.452
     occupation matrix ns (before diag.):
       0.989  0.003 -0.004  0.002 -0.009
       0.003  0.988 -0.005  0.005  0.005
      -0.004 -0.005  0.983  0.008  0.000
       0.002  0.005  0.008  0.991 -0.001
      -0.009  0.005  0.000 -0.001  0.983
     SPIN  2
     eigenvalues:
       0.701  0.892  0.987  0.994  0.995
     eigenvectors (columns):
       0.475  0.224 -0.100 -0.724  0.436
       0.000 -0.668  0.572 -0.000  0.475
       0.591 -0.420 -0.562  0.388  0.087
      -0.274  0.388 -0.173  0.418  0.754
       0.591  0.420  0.562  0.388 -0.087
     occupation matrix ns (before diag.):
       0.923  0.016 -0.073  0.030 -0.091
       0.016  0.946 -0.026  0.028  0.026
      -0.073 -0.026  0.871  0.063 -0.082
       0.030  0.028  0.063  0.957  0.031
      -0.091  0.026 -0.082  0.031  0.871

     Number of occupied Hubbard levels =   37.4099

     negative rho (up, down):  5.911E-07 8.036E-07

     HUBBARD ENERGY =    0.1688  (Ry)

     total cpu time spent up to now is      736.2 secs

     total energy              =   -1118.15786753 Ry
     estimated scf accuracy    <       0.01182369 Ry

     total magnetization       =     2.18 Bohr mag/cell
     absolute magnetization    =     2.54 Bohr mag/cell

     iteration #  8     ecut=   120.00 Ry     beta= 0.20
     Davidson diagonalization with overlap

---- Real-time Memory Report at c_bands before calling an iterative solver
         13128 MiB given to the printing process from OS
           672 MiB allocation reported by mallinfo(arena+hblkhd)
        480971 MiB available memory on the node where the printing process lives
------------------
     ethr =  1.64E-05,  avg # of iterations = 14.5

     =================== HUBBARD OCCUPATIONS ===================
     ------------------------ ATOM    1 ------------------------
     Tr[ns(  1)] (up, down, total) =   4.96153  3.97569  8.93723
     Atomic magnetic moment for atom   1 =   0.98584
     SPIN  1
     eigenvalues:
       0.989  0.989  0.993  0.995  0.995
     eigenvectors (columns):
      -0.486 -0.216  0.000 -0.400 -0.746
       0.073  0.687  0.577 -0.434 -0.014
       0.559 -0.407  0.577  0.229 -0.369
       0.216 -0.486 -0.000 -0.746  0.400
       0.632  0.280 -0.577 -0.205 -0.383
     occupation matrix ns (before diag.):
       0.994  0.001  0.001  0.000  0.002
       0.001  0.991  0.001  0.002 -0.001
       0.001  0.001  0.991 -0.002 -0.001
       0.000  0.002 -0.002  0.994 -0.000
       0.002 -0.001 -0.001 -0.000  0.991
     SPIN  2
     eigenvalues:
       0.538  0.538  0.962  0.962  0.977
     eigenvectors (columns):
      -0.419  0.153 -0.314 -0.838  0.000
       0.127 -0.720 -0.359 -0.060 -0.577
       0.560  0.469  0.231 -0.281 -0.577
       0.153  0.419 -0.838  0.314 -0.000
       0.687 -0.250 -0.128 -0.341  0.577
     occupation matrix ns (before diag.):
       0.877  0.069  0.069  0.000  0.138
       0.069  0.740  0.118  0.120 -0.118
       0.069  0.118  0.740 -0.120 -0.118
       0.000  0.120 -0.120  0.877 -0.000
       0.138 -0.118 -0.118 -0.000  0.740
     ------------------------ ATOM    2 ------------------------
     Tr[ns(  2)] (up, down, total) =   4.93119  4.56383  9.49502
     Atomic magnetic moment for atom   2 =   0.36736
     SPIN  1
     eigenvalues:
       0.972  0.974  0.992  0.997  0.997
     eigenvectors (columns):
      -0.445 -0.000  0.185 -0.876 -0.000
      -0.506 -0.542 -0.467  0.158 -0.454
      -0.506  0.542 -0.467  0.158  0.454
       0.000 -0.642 -0.000 -0.000  0.766
       0.538  0.000 -0.727 -0.426 -0.000
     occupation matrix ns (before diag.):
       0.991 -0.005 -0.005  0.000  0.006
      -0.005  0.983 -0.001 -0.008  0.005
      -0.005 -0.001  0.983  0.008  0.005
       0.000 -0.008  0.008  0.987 -0.000
       0.006  0.005  0.005 -0.000  0.987
     SPIN  2
     eigenvalues:
       0.697  0.890  0.987  0.994  0.996
     eigenvectors (columns):
      -0.000 -0.440 -0.196 -0.000  0.876
       0.593 -0.420  0.562  0.386 -0.085
      -0.593 -0.420  0.562 -0.386 -0.085
       0.546  0.000  0.000 -0.838 -0.000
       0.000  0.673  0.574 -0.000  0.467
     occupation matrix ns (before diag.):
       0.975 -0.019 -0.019  0.000  0.032
      -0.019  0.869  0.084 -0.096  0.027
      -0.019  0.084  0.869  0.096  0.027
       0.000 -0.096  0.096  0.906 -0.000
       0.032  0.027  0.027 -0.000  0.945
     ------------------------ ATOM    3 ------------------------
     Tr[ns(  3)] (up, down, total) =   4.93119  4.56383  9.49502
     Atomic magnetic moment for atom   3 =   0.36736
     SPIN  1
     eigenvalues:
       0.972  0.974  0.992  0.997  0.997
     eigenvectors (columns):
       0.222 -0.556  0.092  0.438  0.664
      -0.506 -0.542  0.467  0.158 -0.454
      -0.538 -0.000 -0.727  0.426 -0.000
      -0.385 -0.321 -0.160 -0.759  0.383
       0.506 -0.542 -0.467 -0.158 -0.454
     occupation matrix ns (before diag.):
       0.988 -0.004  0.003 -0.002 -0.010
      -0.004  0.983 -0.005 -0.009  0.001
       0.003 -0.005  0.987 -0.006  0.005
      -0.002 -0.009 -0.006  0.990  0.001
      -0.010  0.001  0.005  0.001  0.983
     SPIN  2
     eigenvalues:
       0.697  0.890  0.987  0.994  0.996
     eigenvectors (columns):
       0.473  0.220  0.098  0.726  0.438
       0.593 -0.420  0.562 -0.386  0.085
      -0.000 -0.673 -0.574  0.000  0.467
       0.273 -0.381 -0.170  0.419 -0.759
       0.593  0.420 -0.562 -0.386 -0.085
     occupation matrix ns (before diag.):
       0.923 -0.074  0.016 -0.030 -0.093
      -0.074  0.869 -0.027 -0.064 -0.084
       0.016 -0.027  0.945 -0.028  0.027
      -0.030 -0.064 -0.028  0.957 -0.032
      -0.093 -0.084  0.027 -0.032  0.869
     ------------------------ ATOM    4 ------------------------
     Tr[ns(  4)] (up, down, total) =   4.93119  4.56383  9.49502
     Atomic magnetic moment for atom   4 =   0.36736
     SPIN  1
     eigenvalues:
       0.972  0.974  0.992  0.997  0.997
     eigenvectors (columns):
       0.222 -0.556  0.092  0.438  0.664
      -0.538  0.000 -0.727  0.426 -0.000
      -0.506 -0.542  0.467  0.158 -0.454
       0.385  0.321  0.160  0.759 -0.383
       0.506 -0.542 -0.467 -0.158 -0.454
     occupation matrix ns (before diag.):
       0.988  0.003 -0.004  0.002 -0.010
       0.003  0.987 -0.005  0.006  0.005
      -0.004 -0.005  0.983  0.009  0.001
       0.002  0.006  0.009  0.990 -0.001
      -0.010  0.005  0.001 -0.001  0.983
     SPIN  2
     eigenvalues:
       0.697  0.890  0.987  0.994  0.996
     eigenvectors (columns):
       0.473  0.220 -0.098 -0.726  0.438
       0.000 -0.673  0.574 -0.000  0.467
       0.593 -0.420 -0.562  0.386  0.085
      -0.273  0.381 -0.170  0.419  0.759
       0.593  0.420  0.562  0.386 -0.085
     occupation matrix ns (before diag.):
       0.923  0.016 -0.074  0.030 -0.093
       0.016  0.945 -0.027  0.028  0.027
      -0.074 -0.027  0.869  0.064 -0.084
       0.030  0.028  0.064  0.957  0.032
      -0.093  0.027 -0.084  0.032  0.869

     Number of occupied Hubbard levels =   37.4223

     negative rho (up, down):  4.357E-06 4.479E-06

     HUBBARD ENERGY =    0.1581  (Ry)

     total cpu time spent up to now is      831.3 secs

     total energy              =   -1118.16020753 Ry
     estimated scf accuracy    <       0.00453074 Ry

     total magnetization       =     2.15 Bohr mag/cell
     absolute magnetization    =     2.48 Bohr mag/cell

     iteration #  9     ecut=   120.00 Ry     beta= 0.20
     Davidson diagonalization with overlap

---- Real-time Memory Report at c_bands before calling an iterative solver
         13421 MiB given to the printing process from OS
           965 MiB allocation reported by mallinfo(arena+hblkhd)
        480673 MiB available memory on the node where the printing process lives
------------------
     ethr =  6.29E-06,  avg # of iterations =  2.0

     =================== HUBBARD OCCUPATIONS ===================
     ------------------------ ATOM    1 ------------------------
     Tr[ns(  1)] (up, down, total) =   4.96192  3.91854  8.88046
     Atomic magnetic moment for atom   1 =   1.04338
     SPIN  1
     eigenvalues:
       0.990  0.990  0.993  0.995  0.995
     eigenvectors (columns):
       0.515  0.235 -0.000 -0.393 -0.724
      -0.064 -0.670  0.577 -0.462 -0.012
      -0.548  0.390  0.577  0.241 -0.394
      -0.235  0.515 -0.000 -0.724  0.393
      -0.612 -0.280 -0.577 -0.221 -0.406
     occupation matrix ns (before diag.):
       0.993  0.001  0.001  0.000  0.002
       0.001  0.992  0.000  0.002 -0.000
       0.001  0.000  0.992 -0.002 -0.000
       0.000  0.002 -0.002  0.993 -0.000
       0.002 -0.000 -0.000 -0.000  0.992
     SPIN  2
     eigenvalues:
       0.491  0.491  0.977  0.977  0.982
     eigenvectors (columns):
       0.392 -0.154 -0.251 -0.872  0.000
      -0.110  0.732 -0.334 -0.083 -0.577
      -0.579 -0.461  0.239 -0.248 -0.577
      -0.154 -0.392 -0.872  0.251 -0.000
      -0.689  0.271 -0.095 -0.330  0.577
     occupation matrix ns (before diag.):
       0.891  0.076  0.076  0.000  0.152
       0.076  0.712  0.135  0.131 -0.135
       0.076  0.135  0.712 -0.131 -0.135
       0.000  0.131 -0.131  0.891 -0.000
       0.152 -0.135 -0.135 -0.000  0.712
     ------------------------ ATOM    2 ------------------------
     Tr[ns(  2)] (up, down, total) =   4.92866  4.57639  9.50505
     Atomic magnetic moment for atom   2 =   0.35226
     SPIN  1
     eigenvalues:
       0.971  0.973  0.992  0.996  0.997
     eigenvectors (columns):
      -0.448  0.000  0.187 -0.874  0.000
      -0.517  0.538 -0.452  0.168  0.459
      -0.517 -0.538 -0.452  0.168 -0.459
       0.000  0.649 -0.000 -0.000 -0.761
       0.515 -0.000 -0.745 -0.424  0.000
     occupation matrix ns (before diag.):
       0.991 -0.006 -0.006  0.000  0.007
      -0.006  0.982 -0.001 -0.008  0.005
      -0.006 -0.001  0.982  0.008  0.005
       0.000 -0.008  0.008  0.987 -0.000
       0.007  0.005  0.005 -0.000  0.987
     SPIN  2
     eigenvalues:
       0.708  0.890  0.987  0.995  0.996
     eigenvectors (columns):
      -0.000 -0.434  0.179 -0.000 -0.883
       0.594 -0.424 -0.558  0.384  0.095
      -0.594 -0.424 -0.558 -0.384  0.095
       0.543  0.000 -0.000 -0.840  0.000
       0.000  0.673 -0.588 -0.000 -0.450
     occupation matrix ns (before diag.):
       0.976 -0.019 -0.019  0.000  0.032
      -0.019  0.873  0.080 -0.093  0.027
      -0.019  0.080  0.873  0.093  0.027
       0.000 -0.093  0.093  0.910 -0.000
       0.032  0.027  0.027 -0.000  0.945
     ------------------------ ATOM    3 ------------------------
     Tr[ns(  3)] (up, down, total) =   4.92866  4.57639  9.50505
     Atomic magnetic moment for atom   3 =   0.35226
     SPIN  1
     eigenvalues:
       0.971  0.973  0.992  0.996  0.997
     eigenvectors (columns):
       0.224 -0.562  0.094  0.437  0.659
      -0.517 -0.538  0.452  0.168 -0.459
      -0.515 -0.000 -0.745  0.424 -0.000
      -0.388 -0.325 -0.162 -0.757  0.380
       0.517 -0.538 -0.452 -0.168 -0.459
     occupation matrix ns (before diag.):
       0.988 -0.004  0.003 -0.002 -0.010
      -0.004  0.982 -0.005 -0.009  0.001
       0.003 -0.005  0.987 -0.006  0.005
      -0.002 -0.009 -0.006  0.990  0.001
      -0.010  0.001  0.005  0.001  0.982
     SPIN  2
     eigenvalues:
       0.708  0.890  0.987  0.995  0.996
     eigenvectors (columns):
       0.470  0.217  0.090  0.727  0.441
       0.594 -0.424  0.558 -0.384  0.095
      -0.000 -0.673 -0.588  0.000  0.450
       0.272 -0.376 -0.155  0.420 -0.765
       0.594  0.424 -0.558 -0.384 -0.095
     occupation matrix ns (before diag.):
       0.927 -0.071  0.016 -0.028 -0.089
      -0.071  0.873 -0.027 -0.062 -0.080
       0.016 -0.027  0.945 -0.027  0.027
      -0.028 -0.062 -0.027  0.959 -0.030
      -0.089 -0.080  0.027 -0.030  0.873
     ------------------------ ATOM    4 ------------------------
     Tr[ns(  4)] (up, down, total) =   4.92866  4.57639  9.50505
     Atomic magnetic moment for atom   4 =   0.35226
     SPIN  1
     eigenvalues:
       0.971  0.973  0.992  0.996  0.997
     eigenvectors (columns):
       0.224 -0.562  0.094  0.437  0.659
      -0.515  0.000 -0.745  0.424 -0.000
      -0.517 -0.538  0.452  0.168 -0.459
       0.388  0.325  0.162  0.757 -0.380
       0.517 -0.538 -0.452 -0.168 -0.459
     occupation matrix ns (before diag.):
       0.988  0.003 -0.004  0.002 -0.010
       0.003  0.987 -0.005  0.006  0.005
      -0.004 -0.005  0.982  0.009  0.001
       0.002  0.006  0.009  0.990 -0.001
      -0.010  0.005  0.001 -0.001  0.982
     SPIN  2
     eigenvalues:
       0.708  0.890  0.987  0.995  0.996
     eigenvectors (columns):
       0.470  0.217 -0.090 -0.727  0.441
       0.000 -0.673  0.588 -0.000  0.450
       0.594 -0.424 -0.558  0.384  0.095
      -0.272  0.376 -0.155  0.420  0.765
       0.594  0.424  0.558  0.384 -0.095
     occupation matrix ns (before diag.):
       0.927  0.016 -0.071  0.028 -0.089
       0.016  0.945 -0.027  0.027  0.027
      -0.071 -0.027  0.873  0.062 -0.080
       0.028  0.027  0.062  0.959  0.030
      -0.089  0.027 -0.080  0.030  0.873

     Number of occupied Hubbard levels =   37.3956

     negative rho (up, down):  3.069E-06 2.997E-06

     HUBBARD ENERGY =    0.1558  (Ry)

     total cpu time spent up to now is      899.0 secs

     total energy              =   -1118.16169143 Ry
     estimated scf accuracy    <       0.00386875 Ry

     total magnetization       =     2.17 Bohr mag/cell
     absolute magnetization    =     2.47 Bohr mag/cell

     iteration # 10     ecut=   120.00 Ry     beta= 0.20
     Davidson diagonalization with overlap

---- Real-time Memory Report at c_bands before calling an iterative solver
         13713 MiB given to the printing process from OS
          1257 MiB allocation reported by mallinfo(arena+hblkhd)
        480389 MiB available memory on the node where the printing process lives
------------------
     ethr =  5.37E-06,  avg # of iterations =  1.0

     =================== HUBBARD OCCUPATIONS ===================
     ------------------------ ATOM    1 ------------------------
     Tr[ns(  1)] (up, down, total) =   4.96302  3.90637  8.86938
     Atomic magnetic moment for atom   1 =   1.05665
     SPIN  1
     eigenvalues:
       0.990  0.990  0.993  0.995  0.995
     eigenvectors (columns):
       0.516  0.281 -0.000 -0.365 -0.722
      -0.016 -0.661  0.577 -0.479 -0.027
      -0.564  0.344  0.577  0.263 -0.401
      -0.281  0.516 -0.000 -0.722  0.365
      -0.580 -0.317 -0.577 -0.216 -0.428
     occupation matrix ns (before diag.):
       0.993  0.001  0.001  0.000  0.002
       0.001  0.992  0.000  0.002 -0.000
       0.001  0.000  0.992 -0.002 -0.000
       0.000  0.002 -0.002  0.993 -0.000
       0.002 -0.000 -0.000 -0.000  0.992
     SPIN  2
     eigenvalues:
       0.480  0.480  0.982  0.982  0.983
     eigenvectors (columns):
      -0.384  0.150 -0.263 -0.872  0.000
       0.112 -0.735 -0.328 -0.077 -0.577
       0.581  0.464  0.230 -0.245 -0.577
       0.150  0.384 -0.872  0.263 -0.000
       0.693 -0.271 -0.097 -0.322  0.577
     occupation matrix ns (before diag.):
       0.896  0.077  0.077  0.000  0.154
       0.077  0.705  0.139  0.133 -0.139
       0.077  0.139  0.705 -0.133 -0.139
       0.000  0.133 -0.133  0.896 -0.000
       0.154 -0.139 -0.139 -0.000  0.705
     ------------------------ ATOM    2 ------------------------
     Tr[ns(  2)] (up, down, total) =   4.92763  4.57898  9.50662
     Atomic magnetic moment for atom   2 =   0.34865
     SPIN  1
     eigenvalues:
       0.970  0.973  0.992  0.996  0.997
     eigenvectors (columns):
      -0.449  0.000  0.190 -0.873  0.000
      -0.520  0.537 -0.448  0.170  0.460
      -0.520 -0.537 -0.448  0.170 -0.460
       0.000  0.651 -0.000 -0.000 -0.759
       0.508 -0.000 -0.750 -0.424  0.000
     occupation matrix ns (before diag.):
       0.991 -0.006 -0.006  0.000  0.007
      -0.006  0.982 -0.001 -0.008  0.005
      -0.006 -0.001  0.982  0.008  0.005
       0.000 -0.008  0.008  0.987 -0.000
       0.007  0.005  0.005 -0.000  0.987
     SPIN  2
     eigenvalues:
       0.711  0.890  0.987  0.995  0.996
     eigenvectors (columns):
      -0.000 -0.432  0.175 -0.000 -0.885
       0.594 -0.425 -0.557  0.383  0.098
      -0.594 -0.425 -0.557 -0.383  0.098
       0.542  0.000 -0.000 -0.841  0.000
       0.000  0.673 -0.591 -0.000 -0.445
     occupation matrix ns (before diag.):
       0.976 -0.019 -0.019  0.000  0.032
      -0.019  0.873  0.079 -0.092  0.027
      -0.019  0.079  0.873  0.092  0.027
       0.000 -0.092  0.092  0.912 -0.000
       0.032  0.027  0.027 -0.000  0.945
     ------------------------ ATOM    3 ------------------------
     Tr[ns(  3)] (up, down, total) =   4.92763  4.57898  9.50662
     Atomic magnetic moment for atom   3 =   0.34865
     SPIN  1
     eigenvalues:
       0.970  0.973  0.992  0.996  0.997
     eigenvectors (columns):
       0.224 -0.564  0.095  0.437  0.658
      -0.520 -0.537  0.448  0.170 -0.460
      -0.508 -0.000 -0.750  0.424 -0.000
      -0.389 -0.325 -0.164 -0.756  0.380
       0.520 -0.537 -0.448 -0.170 -0.460
     occupation matrix ns (before diag.):
       0.988 -0.004  0.003 -0.002 -0.010
      -0.004  0.982 -0.005 -0.009  0.001
       0.003 -0.005  0.987 -0.006  0.005
      -0.002 -0.009 -0.006  0.990  0.001
      -0.010  0.001  0.005  0.001  0.982
     SPIN  2
     eigenvalues:
       0.711  0.890  0.987  0.995  0.996
     eigenvectors (columns):
       0.469  0.216  0.087  0.728  0.442
       0.594 -0.425  0.557 -0.383  0.098
      -0.000 -0.673 -0.591  0.000  0.445
       0.271 -0.374 -0.151  0.420 -0.766
       0.594  0.425 -0.557 -0.383 -0.098
     occupation matrix ns (before diag.):
       0.928 -0.070  0.016 -0.028 -0.089
      -0.070  0.873 -0.027 -0.062 -0.079
       0.016 -0.027  0.945 -0.027  0.027
      -0.028 -0.062 -0.027  0.960 -0.030
      -0.089 -0.079  0.027 -0.030  0.873
     ------------------------ ATOM    4 ------------------------
     Tr[ns(  4)] (up, down, total) =   4.92763  4.57898  9.50662
     Atomic magnetic moment for atom   4 =   0.34865
     SPIN  1
     eigenvalues:
       0.970  0.973  0.992  0.996  0.997
     eigenvectors (columns):
       0.224 -0.564  0.095  0.437  0.658
      -0.508  0.000 -0.750  0.424 -0.000
      -0.520 -0.537  0.448  0.170 -0.460
       0.389  0.325  0.164  0.756 -0.380
       0.520 -0.537 -0.448 -0.170 -0.460
     occupation matrix ns (before diag.):
       0.988  0.003 -0.004  0.002 -0.010
       0.003  0.987 -0.005  0.006  0.005
      -0.004 -0.005  0.982  0.009  0.001
       0.002  0.006  0.009  0.990 -0.001
      -0.010  0.005  0.001 -0.001  0.982
     SPIN  2
     eigenvalues:
       0.711  0.890  0.987  0.995  0.996
     eigenvectors (columns):
       0.469  0.216 -0.087 -0.728  0.442
       0.000 -0.673  0.591 -0.000  0.445
       0.594 -0.425 -0.557  0.383  0.098
      -0.271  0.374 -0.151  0.420  0.766
       0.594  0.425  0.557  0.383 -0.098
     occupation matrix ns (before diag.):
       0.928  0.016 -0.070  0.028 -0.089
       0.016  0.945 -0.027  0.027  0.027
      -0.070 -0.027  0.873  0.062 -0.079
       0.028  0.027  0.062  0.960  0.030
      -0.089  0.027 -0.079  0.030  0.873

     Number of occupied Hubbard levels =   37.3892

     negative rho (up, down):  2.221E-06 5.760E-07

     HUBBARD ENERGY =    0.1521  (Ry)

     total cpu time spent up to now is      958.3 secs

     total energy              =   -1118.16234875 Ry
     estimated scf accuracy    <       0.00350220 Ry

     total magnetization       =     2.18 Bohr mag/cell
     absolute magnetization    =     2.47 Bohr mag/cell

     iteration # 11     ecut=   120.00 Ry     beta= 0.20
     Davidson diagonalization with overlap

---- Real-time Memory Report at c_bands before calling an iterative solver
         13713 MiB given to the printing process from OS
          1257 MiB allocation reported by mallinfo(arena+hblkhd)
        480357 MiB available memory on the node where the printing process lives
------------------
     ethr =  4.86E-06,  avg # of iterations =  2.0

     =================== HUBBARD OCCUPATIONS ===================
     ------------------------ ATOM    1 ------------------------
     Tr[ns(  1)] (up, down, total) =   4.96667  3.90916  8.87583
     Atomic magnetic moment for atom   1 =   1.05751
     SPIN  1
     eigenvalues:
       0.992  0.992  0.993  0.995  0.995
     eigenvectors (columns):
       0.570  0.307 -0.000 -0.396 -0.651
      -0.018 -0.622  0.577 -0.528  0.012
      -0.530  0.327  0.577  0.254 -0.464
      -0.307  0.570  0.000 -0.651  0.396
      -0.548 -0.295 -0.577 -0.275 -0.451
     occupation matrix ns (before diag.):
       0.994  0.001  0.001  0.000  0.002
       0.001  0.993 -0.000  0.001  0.000
       0.001 -0.000  0.993 -0.001  0.000
       0.000  0.001 -0.001  0.994 -0.000
       0.002  0.000  0.000 -0.000  0.993
     SPIN  2
     eigenvalues:
       0.473  0.473  0.986  0.988  0.988
     eigenvectors (columns):
      -0.378 -0.105  0.000 -0.257 -0.883
       0.188  0.727  0.577 -0.311 -0.076
       0.536 -0.526  0.577  0.222 -0.232
       0.105 -0.378 -0.000 -0.883  0.257
       0.723  0.201 -0.577 -0.090 -0.308
     occupation matrix ns (before diag.):
       0.909  0.076  0.076  0.000  0.152
       0.076  0.697  0.145  0.132 -0.145
       0.076  0.145  0.697 -0.132 -0.145
       0.000  0.132 -0.132  0.909 -0.000
       0.152 -0.145 -0.145 -0.000  0.697
     ------------------------ ATOM    2 ------------------------
     Tr[ns(  2)] (up, down, total) =   4.92491  4.57939  9.50431
     Atomic magnetic moment for atom   2 =   0.34552
     SPIN  1
     eigenvalues:
       0.969  0.972  0.991  0.996  0.996
     eigenvectors (columns):
      -0.446  0.000  0.196 -0.873  0.000
      -0.524  0.536 -0.444  0.168  0.461
      -0.524 -0.536 -0.444  0.168 -0.461
       0.000  0.653 -0.000 -0.000 -0.758
       0.501 -0.000 -0.753 -0.425  0.000
     occupation matrix ns (before diag.):
       0.991 -0.006 -0.006  0.000  0.007
      -0.006  0.981 -0.002 -0.009  0.006
      -0.006 -0.002  0.981  0.009  0.006
       0.000 -0.009  0.009  0.986 -0.000
       0.007  0.006  0.006 -0.000  0.987
     SPIN  2
     eigenvalues:
       0.713  0.889  0.987  0.995  0.996
     eigenvectors (columns):
      -0.000 -0.427  0.170 -0.000 -0.888
       0.596 -0.425 -0.556  0.380  0.098
      -0.596 -0.425 -0.556 -0.380  0.098
       0.537  0.000 -0.000 -0.843  0.000
       0.000  0.675 -0.593 -0.000 -0.438
     occupation matrix ns (before diag.):
       0.976 -0.019 -0.019  0.000  0.032
[...]
     occupation matrix ns (before diag.):
       0.920  0.074  0.074  0.000  0.149
       0.074  0.676  0.156  0.129 -0.156
       0.074  0.156  0.676 -0.129 -0.156
       0.000  0.129 -0.129  0.920 -0.000
       0.149 -0.156 -0.156 -0.000  0.676
     ------------------------ ATOM    2 ------------------------
     Tr[ns(  2)] (up, down, total) =   4.90274  4.62667  9.52941
     Atomic magnetic moment for atom   2 =   0.27607
     SPIN  1
     eigenvalues:
       0.960  0.962  0.990  0.995  0.996
     eigenvectors (columns):
       0.000 -0.411  0.291  0.000 -0.864
      -0.536 -0.567 -0.400 -0.461  0.135
       0.536 -0.567 -0.400  0.461  0.135
      -0.652 -0.000 -0.000  0.758  0.000
      -0.000  0.432 -0.772  0.000 -0.466
     occupation matrix ns (before diag.):
       0.989 -0.007 -0.007  0.000  0.007
      -0.007  0.974 -0.001 -0.012  0.006
      -0.007 -0.001  0.974  0.012  0.006
       0.000 -0.012  0.012  0.980 -0.000
       0.007  0.006  0.006 -0.000  0.986
     SPIN  2
     eigenvalues:
       0.804  0.856  0.980  0.992  0.995
     eigenvectors (columns):
      -0.509  0.000 -0.033 -0.000  0.860
      -0.279  0.616  0.634  0.347 -0.142
      -0.279 -0.616  0.634 -0.347 -0.142
       0.000  0.491 -0.000 -0.871 -0.000
       0.764 -0.000  0.442 -0.000  0.470
     occupation matrix ns (before diag.):
       0.945 -0.027 -0.027  0.000  0.075
      -0.027  0.921  0.032 -0.041  0.037
      -0.027  0.032  0.921  0.041  0.037
       0.000 -0.041  0.041  0.959 -0.000
       0.075  0.037  0.037 -0.000  0.880
     ------------------------ ATOM    3 ------------------------
     Tr[ns(  3)] (up, down, total) =   4.90274  4.62667  9.52941
     Atomic magnetic moment for atom   3 =   0.27607
     SPIN  1
     eigenvalues:
       0.960  0.962  0.990  0.995  0.996
     eigenvectors (columns):
       0.565 -0.206  0.146 -0.656 -0.432
       0.536  0.567  0.400  0.461 -0.135
      -0.000  0.432 -0.772 -0.000 -0.466
       0.326  0.356 -0.252 -0.379  0.748
       0.536 -0.567 -0.400  0.461  0.135
     occupation matrix ns (before diag.):
       0.982 -0.007  0.004 -0.004 -0.014
      -0.007  0.974 -0.006 -0.012  0.001
       0.004 -0.006  0.986 -0.006  0.006
      -0.004 -0.012 -0.006  0.987 -0.000
      -0.014  0.001  0.006 -0.000  0.974
     SPIN  2
     eigenvalues:
       0.804  0.856  0.980  0.992  0.995
     eigenvectors (columns):
       0.255  0.425 -0.016 -0.755 -0.430
      -0.279  0.616 -0.634  0.347 -0.142
      -0.764 -0.000  0.442 -0.000 -0.470
      -0.441  0.245  0.028 -0.436  0.745
       0.279  0.616  0.634  0.347  0.142
     occupation matrix ns (before diag.):
       0.956 -0.022  0.037  0.006 -0.049
      -0.022  0.921 -0.037 -0.044 -0.032
       0.037 -0.037  0.880 -0.065  0.037
       0.006 -0.044 -0.065  0.949  0.003
      -0.049 -0.032  0.037  0.003  0.921
     ------------------------ ATOM    4 ------------------------
     Tr[ns(  4)] (up, down, total) =   4.90274  4.62667  9.52941
     Atomic magnetic moment for atom   4 =   0.27607
     SPIN  1
     eigenvalues:
       0.960  0.962  0.990  0.995  0.996
     eigenvectors (columns):
       0.565 -0.206  0.146 -0.656 -0.432
       0.000  0.432 -0.772 -0.000 -0.466
       0.536  0.567  0.400  0.461 -0.135
      -0.326 -0.356  0.252  0.379 -0.748
       0.536 -0.567 -0.400  0.461  0.135
     occupation matrix ns (before diag.):
       0.982  0.004 -0.007  0.004 -0.014
       0.004  0.986 -0.006  0.006  0.006
      -0.007 -0.006  0.974  0.012  0.001
       0.004  0.006  0.012  0.987  0.000
      -0.014  0.006  0.001  0.000  0.974
     SPIN  2
     eigenvalues:
       0.804  0.856  0.980  0.992  0.995
     eigenvectors (columns):
       0.255  0.425 -0.016 -0.755 -0.430
      -0.764 -0.000  0.442 -0.000 -0.470
      -0.279  0.616 -0.634  0.347 -0.142
       0.441 -0.245 -0.028  0.436 -0.745
       0.279  0.616  0.634  0.347  0.142
     occupation matrix ns (before diag.):
       0.956  0.037 -0.022 -0.006 -0.049
       0.037  0.880 -0.037  0.065  0.037
      -0.022 -0.037  0.921  0.044 -0.032
      -0.006  0.065  0.044  0.949 -0.003
      -0.049  0.037 -0.032 -0.003  0.921

     Number of occupied Hubbard levels =   37.4255

     HUBBARD ENERGY =    0.1553  (Ry)

     total cpu time spent up to now is    13332.7 secs

     total energy              =   -1118.21011070 Ry
     estimated scf accuracy    <          1.5E-12 Ry

     total magnetization       =     2.08 Bohr mag/cell
     absolute magnetization    =     2.27 Bohr mag/cell

     iteration # 16     ecut=   120.00 Ry     beta= 0.20
     Davidson diagonalization with overlap

---- Real-time Memory Report at c_bands before calling an iterative solver
         14057 MiB given to the printing process from OS
          1324 MiB allocation reported by mallinfo(arena+hblkhd)
        479282 MiB available memory on the node where the printing process lives
------------------
     ethr =  1.00E-13,  avg # of iterations =  1.0

     =================== HUBBARD OCCUPATIONS ===================
     ------------------------ ATOM    1 ------------------------
     Tr[ns(  1)] (up, down, total) =   4.96944  3.86788  8.83732
     Atomic magnetic moment for atom   1 =   1.10156
     SPIN  1
     eigenvalues:
       0.993  0.993  0.993  0.995  0.995
     eigenvectors (columns):
      -0.000 -0.567 -0.330  0.391  0.646
      -0.577 -0.002  0.617  0.535 -0.011
      -0.577  0.535 -0.306 -0.258  0.469
       0.000  0.330 -0.567  0.646 -0.391
       0.577  0.533  0.310  0.277  0.458
     occupation matrix ns (before diag.):
       0.994  0.000  0.000  0.000  0.001
       0.000  0.994 -0.000  0.001  0.000
       0.000 -0.000  0.994 -0.001  0.000
       0.000  0.001 -0.001  0.994 -0.000
       0.001  0.000  0.000 -0.000  0.994
     SPIN  2
     eigenvalues:
       0.450  0.450  0.987  0.990  0.990
     eigenvectors (columns):
      -0.341 -0.118  0.000 -0.225 -0.905
       0.144  0.748  0.577 -0.284 -0.081
       0.575 -0.498  0.577  0.212 -0.205
       0.118 -0.341 -0.000 -0.905  0.225
       0.719  0.249 -0.577 -0.071 -0.286
     occupation matrix ns (before diag.):
       0.920  0.074  0.074  0.000  0.149
       0.074  0.676  0.156  0.129 -0.156
       0.074  0.156  0.676 -0.129 -0.156
       0.000  0.129 -0.129  0.920 -0.000
       0.149 -0.156 -0.156 -0.000  0.676
     ------------------------ ATOM    2 ------------------------
     Tr[ns(  2)] (up, down, total) =   4.90274  4.62667  9.52941
     Atomic magnetic moment for atom   2 =   0.27607
     SPIN  1
     eigenvalues:
       0.960  0.962  0.990  0.995  0.996
     eigenvectors (columns):
      -0.000 -0.411  0.291 -0.000 -0.864
       0.536 -0.567 -0.400  0.461  0.135
      -0.536 -0.567 -0.400 -0.461  0.135
       0.652 -0.000 -0.000 -0.758  0.000
       0.000  0.432 -0.772  0.000 -0.466
     occupation matrix ns (before diag.):
       0.989 -0.007 -0.007  0.000  0.007
      -0.007  0.974 -0.001 -0.012  0.006
      -0.007 -0.001  0.974  0.012  0.006
       0.000 -0.012  0.012  0.980 -0.000
       0.007  0.006  0.006 -0.000  0.986
     SPIN  2
     eigenvalues:
       0.804  0.856  0.980  0.992  0.995
     eigenvectors (columns):
      -0.509  0.000 -0.033 -0.000  0.860
      -0.279  0.616  0.634  0.347 -0.142
      -0.279 -0.616  0.634 -0.347 -0.142
       0.000  0.491 -0.000 -0.871 -0.000
       0.764 -0.000  0.442 -0.000  0.470
     occupation matrix ns (before diag.):
       0.945 -0.027 -0.027  0.000  0.075
      -0.027  0.921  0.032 -0.041  0.037
      -0.027  0.032  0.921  0.041  0.037
       0.000 -0.041  0.041  0.959 -0.000
       0.075  0.037  0.037 -0.000  0.880
     ------------------------ ATOM    3 ------------------------
     Tr[ns(  3)] (up, down, total) =   4.90274  4.62667  9.52941
     Atomic magnetic moment for atom   3 =   0.27607
     SPIN  1
     eigenvalues:
       0.960  0.962  0.990  0.995  0.996
     eigenvectors (columns):
       0.565 -0.206  0.146 -0.656 -0.432
       0.536  0.567  0.400  0.461 -0.135
      -0.000  0.432 -0.772 -0.000 -0.466
       0.326  0.356 -0.252 -0.379  0.748
       0.536 -0.567 -0.400  0.461  0.135
     occupation matrix ns (before diag.):
       0.982 -0.007  0.004 -0.004 -0.014
      -0.007  0.974 -0.006 -0.012  0.001
       0.004 -0.006  0.986 -0.006  0.006
      -0.004 -0.012 -0.006  0.987 -0.000
      -0.014  0.001  0.006 -0.000  0.974
     SPIN  2
     eigenvalues:
       0.804  0.856  0.980  0.992  0.995
     eigenvectors (columns):
       0.255  0.425 -0.016 -0.755 -0.430
      -0.279  0.616 -0.634  0.347 -0.142
      -0.764 -0.000  0.442 -0.000 -0.470
      -0.441  0.245  0.028 -0.436  0.745
       0.279  0.616  0.634  0.347  0.142
     occupation matrix ns (before diag.):
       0.956 -0.022  0.037  0.006 -0.049
      -0.022  0.921 -0.037 -0.044 -0.032
       0.037 -0.037  0.880 -0.065  0.037
       0.006 -0.044 -0.065  0.949  0.003
      -0.049 -0.032  0.037  0.003  0.921
     ------------------------ ATOM    4 ------------------------
     Tr[ns(  4)] (up, down, total) =   4.90274  4.62667  9.52941
     Atomic magnetic moment for atom   4 =   0.27607
     SPIN  1
     eigenvalues:
       0.960  0.962  0.990  0.995  0.996
     eigenvectors (columns):
       0.565 -0.206  0.146 -0.656 -0.432
       0.000  0.432 -0.772 -0.000 -0.466
       0.536  0.567  0.400  0.461 -0.135
      -0.326 -0.356  0.252  0.379 -0.748
       0.536 -0.567 -0.400  0.461  0.135
     occupation matrix ns (before diag.):
       0.982  0.004 -0.007  0.004 -0.014
       0.004  0.986 -0.006  0.006  0.006
      -0.007 -0.006  0.974  0.012  0.001
       0.004  0.006  0.012  0.987  0.000
      -0.014  0.006  0.001  0.000  0.974
     SPIN  2
     eigenvalues:
       0.804  0.856  0.980  0.992  0.995
     eigenvectors (columns):
       0.255  0.425 -0.016 -0.755 -0.430
      -0.764 -0.000  0.442 -0.000 -0.470
      -0.279  0.616 -0.634  0.347 -0.142
       0.441 -0.245 -0.028  0.436 -0.745
       0.279  0.616  0.634  0.347  0.142
     occupation matrix ns (before diag.):
       0.956  0.037 -0.022 -0.006 -0.049
       0.037  0.880 -0.037  0.065  0.037
      -0.022 -0.037  0.921  0.044 -0.032
      -0.006  0.065  0.044  0.949 -0.003
      -0.049  0.037 -0.032 -0.003  0.921

     Number of occupied Hubbard levels =   37.4255

     HUBBARD ENERGY =    0.1553  (Ry)

     Magnetic moment per site  (integrated on atomic sphere of radius R)
     atom   1 (R=0.031)  charge= 16.4355  magn=  1.1323
     atom   2 (R=0.031)  charge= 14.9727  magn=  0.2553
     atom   3 (R=0.031)  charge= 14.9727  magn=  0.2553
     atom   4 (R=0.031)  charge= 14.9727  magn=  0.2553

     total cpu time spent up to now is    13388.3 secs

     End of self-consistent calculation

 ------ SPIN UP ------------


          k = 0.0000 0.0000 0.0000 (****** PWs)   bands (ev):

  -107.8322-100.6600-100.6406-100.6406 -68.4093 -68.2081 -68.2081 -55.3201
   -55.0862 -55.0862 -54.8310 -54.8039 -54.8039 -54.7199 -54.7199 -54.6710
   -10.3334  -8.8354  -8.6565  -8.6565  -8.0574  -8.0574  -7.4572  -7.3780
    -7.3780  -7.2041  -6.0715  -6.0616  -6.0616  -5.8838  -5.8838  -5.8100
    -5.8100  -5.7207  -5.5928  -5.5928  -4.9680  -3.6526  -3.6526  -3.4074
    -1.0319  -0.4644  -0.4644  -0.3413  -0.0152  -0.0152   0.0499   0.1559
     0.1628   0.2003

     occupation numbers 
     1.0000   1.0000   1.0000   1.0000   1.0000   1.0000   1.0000   1.0000
     1.0000   1.0000   1.0000   1.0000   1.0000   1.0000   1.0000   1.0000
     1.0000   1.0000   1.0000   1.0000   1.0000   1.0000   1.0000   1.0000
     1.0000   1.0000   1.0000   1.0000   1.0000   0.9999   0.9999   0.9999
     0.9999   0.9998   0.9995   0.9995   0.9823   0.0261   0.0261   0.0064
     0.0000   0.0000   0.0000   0.0000   0.0000   0.0000   0.0000   0.0000
     0.0000   0.0000

 ------ SPIN DOWN ----------


          k = 0.0000 0.0000 0.0000 (****** PWs)   bands (ev):

  -106.6375-100.5068-100.4858-100.4858 -67.0833 -66.9326 -66.9326 -55.1087
   -54.8678 -54.8678 -54.6455 -54.6280 -54.6280 -54.5501 -54.5501 -54.5063
   -10.2251  -8.3026  -8.1302  -8.1302  -7.1789  -7.1789  -7.1263  -7.0786
    -6.4557  -6.4557  -5.8554  -5.8554  -5.6540  -5.6540  -5.6020  -5.4858
    -5.3412  -5.3412  -4.4036  -3.9579  -3.9579  -3.4475  -3.4475  -3.1308
    -0.9638  -0.3762  -0.3762  -0.2584   0.0285   0.0285   0.0514   0.1625
     0.1676   0.1676

     occupation numbers 
     1.0000   1.0000   1.0000   1.0000   1.0000   1.0000   1.0000   1.0000
     1.0000   1.0000   1.0000   1.0000   1.0000   1.0000   1.0000   1.0000
     1.0000   1.0000   1.0000   1.0000   1.0000   1.0000   1.0000   1.0000
     1.0000   1.0000   0.9999   0.9999   0.9997   0.9997   0.9995   0.9991
     0.9979   0.9979   0.6770   0.1363   0.1363   0.0081   0.0081   0.0013
     0.0000   0.0000   0.0000   0.0000   0.0000   0.0000   0.0000   0.0000
     0.0000   0.0000

     the Fermi energy is    -4.2761 ev

!    total energy              =   -1118.21011070 Ry
     estimated scf accuracy    <          9.9E-13 Ry
     smearing contrib. (-TS)   =      -0.02488928 Ry
     internal energy E=F+TS    =   -1118.18522142 Ry

     The total energy is F=E-TS. E is the sum of the following terms:
     one-electron contribution =   -2988.83362247 Ry
     hartree contribution      =    1477.99523884 Ry
     xc contribution           =    -185.31056942 Ry
     ewald contribution        =     577.80845560 Ry
     Hubbard energy            =       0.15527602 Ry

     total magnetization       =     2.08 Bohr mag/cell
     absolute magnetization    =     2.27 Bohr mag/cell

     convergence has been achieved in  16 iterations

     Forces acting on atoms (cartesian axes, Ry/au):

     atom    1 type  1   force =     0.00007445    0.00007445    0.00007445
     atom    2 type  2   force =    -0.00004988   -0.00004988    0.00002530
     atom    3 type  2   force =     0.00002530   -0.00004988   -0.00004988
     atom    4 type  2   force =    -0.00004988    0.00002530   -0.00004988
     The non-local contrib.  to forces
     atom    1 type  1   force =    -0.56545327   -0.56545327   -0.56545327
     atom    2 type  2   force =     0.17840847    0.17840847   -0.29276241
     atom    3 type  2   force =    -0.29276241    0.17840847    0.17840847
     atom    4 type  2   force =     0.17840847   -0.29276241    0.17840847
     The ionic contribution  to forces
     atom    1 type  1   force =   -42.23741437  -42.23741437  -42.23741437
     atom    2 type  2   force =    40.91288588   40.91288588  -39.58835738
     atom    3 type  2   force =   -39.58835738   40.91288588   40.91288588
     atom    4 type  2   force =    40.91288588  -39.58835738   40.91288588
     The local contribution  to forces
     atom    1 type  1   force =    42.78827323   42.78827339   42.78827336
     atom    2 type  2   force =   -41.07127618  -41.07127608   39.85552009
     atom    3 type  2   force =    39.85551992  -41.07127604  -41.07127606
     atom    4 type  2   force =   -41.07127619   39.85552014  -41.07127611
     The core correction contribution to forces
     atom    1 type  1   force =     0.01631844    0.01631844    0.01631844
     atom    2 type  2   force =     0.00108706    0.00108706    0.01232786
     atom    3 type  2   force =     0.01232786    0.00108706    0.00108705
     atom    4 type  2   force =     0.00108706    0.01232786    0.00108706
     The Hubbard contrib.    to forces
     atom    1 type  1   force =    -0.00165139   -0.00165139   -0.00165139
     atom    2 type  2   force =    -0.02115572   -0.02115572    0.01329795
     atom    3 type  2   force =     0.01329795   -0.02115572   -0.02115572
     atom    4 type  2   force =    -0.02115572    0.01329795   -0.02115572
     The SCF correction term to forces
     atom    1 type  1   force =     0.00000189    0.00000171    0.00000175
     atom    2 type  2   force =     0.00000069    0.00000058   -0.00000075
     atom    3 type  2   force =    -0.00000057    0.00000054    0.00000056
     atom    4 type  2   force =     0.00000070   -0.00000080    0.00000062

     Total force =     0.000183     Total SCF correction =     0.000004
     Energy error            =      1.9E-06 Ry
     Gradient error          =      7.4E-05 Ry/Bohr

     bfgs converged in   9 scf cycles and   8 bfgs steps
     (criteria: energy <  1.0E-04 Ry, force <  1.0E-03 Ry/Bohr)

     End of BFGS Geometry Optimization

     Final energy             =   -1118.2101106986 Ry

     File ./pwscf.bfgs deleted, as requested
Begin final coordinates

ATOMIC_POSITIONS (bohr)
Ni               0.2592620174        0.2592620174        0.2592620174
Pt               3.4732154688        3.4732154688       -0.0056929551
Pt              -0.0056929551        3.4732154688        3.4732154688
Pt               3.4732154688       -0.0056929551        3.4732154688
End final coordinates



     Writing all to output data dir ./pwscf.save/ :
     XML data file, charge density, pseudopotentials, collected wavefunctions

     init_run     :   1086.69s CPU     41.64s WALL (       1 calls)
     electrons    : 506583.74s CPU  13049.00s WALL (       9 calls)
     update_pot   :   1406.43s CPU     60.94s WALL (       8 calls)
     forces       :   3097.43s CPU    234.05s WALL (       9 calls)

     Called by init_run:
     wfcinit      :    801.48s CPU     23.06s WALL (       1 calls)
     wfcinit:wfcr :    788.92s CPU     18.10s WALL (       2 calls)
     potinit      :    139.58s CPU      6.80s WALL (       1 calls)
     hinit0       :    139.69s CPU      5.74s WALL (       1 calls)

     Called by electrons:
     c_bands      : 356236.50s CPU   9389.49s WALL (     194 calls)
     sum_band     : 122891.69s CPU   2111.91s WALL (     194 calls)
     v_of_rho     :  25801.31s CPU   1216.40s WALL (     202 calls)
     v_h          :   3297.62s CPU     89.53s WALL (     202 calls)
     v_xc         :  23498.86s CPU   1175.92s WALL (     211 calls)
     mix_rho      :   2570.07s CPU    310.20s WALL (     194 calls)

     Called by c_bands:
     init_us_2    :    260.81s CPU    278.71s WALL (     832 calls)
     regterg      : 352894.40s CPU   9192.42s WALL (     390 calls)

     Called by sum_band:
     sum_band:wei :      0.02s CPU      0.01s WALL (     194 calls)
     sum_band:loo : 117939.38s CPU   1905.68s WALL (     194 calls)
     sum_band:buf :    386.86s CPU     17.58s WALL (     388 calls)
     sum_band:ini :    123.39s CPU    129.89s WALL (     388 calls)

     Called by *egterg:
     rdiaghg      :   4033.13s CPU     20.23s WALL (    1337 calls)
     regterg:over :    338.43s CPU    359.04s WALL (     967 calls)
     regterg:upda :   1409.72s CPU    273.57s WALL (     967 calls)
     regterg:last :   1806.58s CPU    385.51s WALL (     748 calls)
     h_psi        : 341296.93s CPU   7879.78s WALL (    1359 calls)
     g_psi        :   2164.85s CPU     12.12s WALL (     967 calls)

     Called by h_psi:
     h_psi:calbec :    361.75s CPU    372.01s WALL (    1359 calls)
     vloc_psi     : 337017.76s CPU   6721.98s WALL (    1359 calls)
     add_vuspsi   :    393.96s CPU    394.61s WALL (    1359 calls)
     vhpsi        :    344.26s CPU    356.95s WALL (    1359 calls)

     General routines
     calbec       :    686.06s CPU    614.65s WALL (    4096 calls)
     fft          :  20419.49s CPU    712.57s WALL (    2752 calls)
     ffts         :   1768.20s CPU     52.65s WALL (     194 calls)
     fftw         : 338931.66s CPU   6623.99s WALL (   56726 calls)

     Parallel routines

     Hubbard U routines
     new_ns       :     51.53s CPU     55.72s WALL (     194 calls)
     vhpsi        :    344.26s CPU    356.95s WALL (    1359 calls)
     force_hub    :    203.32s CPU    119.21s WALL (       9 calls)
                                        0.00s GPU  (       9 calls)

     PWSCF        :   5d22h19m CPU      3h43m WALL


   This run was terminated on:  17:35: 4   2Jul2025            

=------------------------------------------------------------------------------=
   JOB DONE.
=------------------------------------------------------------------------------=
