
     Program PWSCF v.7.4.1 starts on  9Jun2025 at 15:13:19 

     This program is part of the open-source Quantum ESPRESSO suite
     for quantum simulation of materials; please cite
         "P. Giannozzi et al., J. Phys.:Condens. Matter 21 395502 (2009);
         "P. Giannozzi et al., J. Phys.:Condens. Matter 29 465901 (2017);
         "P. Giannozzi et al., J. Chem. Phys. 152 154105 (2020);
          URL http://www.quantum-espresso.org", 
     in publications or presentations arising from this work. More details at
     http://www.quantum-espresso.org/quote

     Parallel version (MPI), running on    48 processors

     MPI processes distributed on     1 nodes
     552001 MiB available memory on the printing compute node when the environment starts

     Reading input from Si.bands.in
Warning: card  &IONS ignored
Warning: card  / ignored

     Current dimensions of program PWSCF are:
     Max number of different atomic species (ntypx) = 10
     Max number of k-points (npk) =  40000
     Max angular momentum in pseudopotentials (lmaxx) =  4

     IMPORTANT: XC functional enforced from input :
     Exchange-correlation= R2SCAN
                           (   0   0   0   0   0 497 498)
     Any further DFT definition will be discarded
     Please, verify this is what you really want


     Atomic positions and unit cell read from directory:
     ./outdir_kpt_888_ecutWfc_40_ecutrho_160_scf_bands/Si.save/

     Found identity + ( -0.0000 -0.0000  0.5000) symmetry
     This is a supercell, fractional translations are disabled

     K-points division:     npool     =       4
     R & G space division:  proc/nbgrp/npool/nimage =      12
     Subspace diagonalization in iterative solution of the eigenvalue problem:
     a serial algorithm will be used


     Parallelization info
     --------------------
     sticks:   dense  smooth     PW     G-vecs:    dense   smooth      PW
     Min         195     195     54                 6286     6286     917
     Max         196     196     55                 6291     6291     921
     Sum        2347    2347    649                75457    75457   11017

     Using Slab Decomposition



     bravais-lattice index     =            0
     lattice parameter (alat)  =      14.6204  a.u.
     unit-cell volume          =    2209.8296 (a.u.)^3
     number of atoms/cell      =           16
     number of atomic types    =            1
     number of electrons       =        64.00
     number of Kohn-Sham states=           38
     kinetic-energy cutoff     =      40.0000  Ry
     charge density cutoff     =     160.0000  Ry
     Exchange-correlation= R2SCAN
                           (   0   0   0   0   0 497 498)

     celldm(1)=  14.620354  celldm(2)=   0.000000  celldm(3)=   0.000000
     celldm(4)=   0.000000  celldm(5)=   0.000000  celldm(6)=   0.000000

     crystal axes: (cart. coord. in units of alat)
               a(1) = (   1.000000   0.000000   0.000000 )  
               a(2) = (   0.500000   0.866026   0.000000 )  
               a(3) = (   0.500000   0.288675   0.816497 )  

     reciprocal axes: (cart. coord. in units 2 pi/alat)
               b(1) = (  1.000000 -0.577350 -0.408249 )  
               b(2) = ( -0.000000  1.154700 -0.408248 )  
               b(3) = ( -0.000000 -0.000000  1.224745 )  


     PseudoPot. # 1 for Si read from file:
     ./Si_ONCV_PBE-1.2.upf
     MD5 check sum: 7f029a58b69e3aa87b46a36c608bf45e
     Pseudo is Norm-conserving, Zval =  4.0
     Generated using ONCVPSP code by D. R. Hamann
     Using radial grid of  602 points,  4 beta functions with: 
                l(1) =   0
                l(2) =   0
                l(3) =   1
                l(4) =   1

     atomic species   valence    mass     pseudopotential
     Si                4.00    28.08550     Si( 1.00)

     No symmetry found


                                    s                        frac. trans.

      isym =  1     identity                                     

 cryst.   s( 1) = (     1          0          0      )
                  (     0          1          0      )
                  (     0          0          1      )

 cart.    s( 1) = (  1.0000000  0.0000000  0.0000000 )
                  ( -0.0000000  1.0000000  0.0000000 )
                  (  0.0000000  0.0000000  1.0000000 )


   Cartesian axes

     site n.     atom                  positions (alat units)
         1        Si     tau(   1) = (   0.8750001   0.5051817   0.3572174  )
         2        Si     tau(   2) = (   1.1250000   0.6495191   0.7654657  )
         3        Si     tau(   3) = (   1.1249999   0.9381944   0.3572174  )
         4        Si     tau(   4) = (   1.3750002   1.0825320   0.7654658  )
         5        Si     tau(   5) = (   1.3750000   0.5051816   0.3572174  )
         6        Si     tau(   6) = (   1.6250002   0.6495192   0.7654658  )
         7        Si     tau(   7) = (   1.6250001   0.9381946   0.3572175  )
         8        Si     tau(   8) = (   1.8750000   1.0825320   0.7654657  )
         9        Si     tau(   9) = (   0.1250001   0.0721688   0.0510311  )
        10        Si     tau(  10) = (   0.3750000   0.2165063   0.4592794  )
        11        Si     tau(  11) = (   0.3749999   0.5051816   0.0510310  )
        12        Si     tau(  12) = (   0.6250001   0.6495192   0.4592795  )
        13        Si     tau(  13) = (   0.6249999   0.0721688   0.0510310  )
        14        Si     tau(  14) = (   0.8750001   0.2165064   0.4592795  )
        15        Si     tau(  15) = (   0.8750001   0.5051818   0.0510312  )
        16        Si     tau(  16) = (   1.1250000   0.6495192   0.4592794  )

   Crystallographic axes

     site n.     atom                  positions (cryst. coord.)
         1        Si     tau(   1) = (  0.4375000  0.4375000  0.4375001  )
         2        Si     tau(   2) = (  0.4375000  0.4375000  0.9374999  )
         3        Si     tau(   3) = (  0.4374999  0.9375000  0.4375000  )
         4        Si     tau(   4) = (  0.4375000  0.9375000  0.9375001  )
         5        Si     tau(   5) = (  0.9375000  0.4374999  0.4375000  )
         6        Si     tau(   6) = (  0.9375000  0.4375000  0.9375001  )
         7        Si     tau(   7) = (  0.9375000  0.9375000  0.4375000  )
         8        Si     tau(   8) = (  0.9375000  0.9375000  0.9374999  )
         9        Si     tau(   9) = (  0.0625000  0.0625000  0.0625001  )
        10        Si     tau(  10) = (  0.0625000  0.0625000  0.5625000  )
        11        Si     tau(  11) = (  0.0625000  0.5625000  0.0624999  )
        12        Si     tau(  12) = (  0.0625000  0.5625001  0.5625000  )
        13        Si     tau(  13) = (  0.5625000  0.0625000  0.0624999  )
        14        Si     tau(  14) = (  0.5625001  0.0625000  0.5625000  )
        15        Si     tau(  15) = (  0.5625000  0.5625000  0.0625001  )
        16        Si     tau(  16) = (  0.5625000  0.5625000  0.5624999  )

     number of k points=   198  Fermi-Dirac smearing, width (Ry)=  0.0032
                       cart. coord. in units 2pi/alat
        k(    1) = (   0.0000000   0.0000000   0.0000000), wk =   0.0101010
        k(    2) = (   0.0113636  -0.0065608   0.0092784), wk =   0.0101010
        k(    3) = (   0.0227273  -0.0131216   0.0185567), wk =   0.0101010
        k(    4) = (   0.0340909  -0.0196824   0.0278351), wk =   0.0101010
        k(    5) = (   0.0454545  -0.0262432   0.0371135), wk =   0.0101010
        k(    6) = (   0.0568182  -0.0328040   0.0463918), wk =   0.0101010
        k(    7) = (   0.0681818  -0.0393648   0.0556702), wk =   0.0101010
        k(    8) = (   0.0795455  -0.0459256   0.0649486), wk =   0.0101010
        k(    9) = (   0.0909091  -0.0524864   0.0742269), wk =   0.0101010
        k(   10) = (   0.1022727  -0.0590472   0.0835053), wk =   0.0101010
        k(   11) = (   0.1136364  -0.0656080   0.0927837), wk =   0.0101010
        k(   12) = (   0.1250000  -0.0721688   0.1020620), wk =   0.0101010
        k(   13) = (   0.1363636  -0.0787296   0.1113404), wk =   0.0101010
        k(   14) = (   0.1477273  -0.0852904   0.1206187), wk =   0.0101010
        k(   15) = (   0.1590909  -0.0918512   0.1298971), wk =   0.0101010
        k(   16) = (   0.1704546  -0.0984120   0.1391755), wk =   0.0101010
        k(   17) = (   0.1818182  -0.1049727   0.1484538), wk =   0.0101010
        k(   18) = (   0.1931818  -0.1115335   0.1577322), wk =   0.0101010
        k(   19) = (   0.2045455  -0.1180943   0.1670106), wk =   0.0101010
        k(   20) = (   0.2159091  -0.1246551   0.1762889), wk =   0.0101010
        k(   21) = (   0.2272727  -0.1312159   0.1855673), wk =   0.0101010
        k(   22) = (   0.2386364  -0.1377767   0.1948457), wk =   0.0101010
        k(   23) = (   0.2500000  -0.1443375   0.2041240), wk =   0.0101010
        k(   24) = (   0.2613636  -0.1508983   0.2134024), wk =   0.0101010
        k(   25) = (   0.2727273  -0.1574591   0.2226808), wk =   0.0101010
        k(   26) = (   0.2840909  -0.1640199   0.2319591), wk =   0.0101010
        k(   27) = (   0.2954546  -0.1705807   0.2412375), wk =   0.0101010
        k(   28) = (   0.3068182  -0.1771415   0.2505159), wk =   0.0101010
        k(   29) = (   0.3181818  -0.1837023   0.2597942), wk =   0.0101010
        k(   30) = (   0.3295455  -0.1902631   0.2690726), wk =   0.0101010
        k(   31) = (   0.3409091  -0.1968239   0.2783510), wk =   0.0101010
        k(   32) = (   0.3522727  -0.2033847   0.2876293), wk =   0.0101010
        k(   33) = (   0.3636364  -0.2099455   0.2969077), wk =   0.0101010
        k(   34) = (   0.3750000  -0.2165063   0.3061861), wk =   0.0101010
        k(   35) = (   0.3863636  -0.2230671   0.3154644), wk =   0.0101010
        k(   36) = (   0.3977273  -0.2296279   0.3247428), wk =   0.0101010
        k(   37) = (   0.4090909  -0.2361887   0.3340212), wk =   0.0101010
        k(   38) = (   0.4204546  -0.2427495   0.3432995), wk =   0.0101010
        k(   39) = (   0.4318182  -0.2493103   0.3525779), wk =   0.0101010
        k(   40) = (   0.4431818  -0.2558711   0.3618562), wk =   0.0101010
        k(   41) = (   0.4545455  -0.2624319   0.3711346), wk =   0.0101010
        k(   42) = (   0.4659091  -0.2689927   0.3804130), wk =   0.0101010
        k(   43) = (   0.4772727  -0.2755535   0.3896913), wk =   0.0101010
        k(   44) = (   0.4886364  -0.2821143   0.3989697), wk =   0.0101010
        k(   45) = (   0.5000000  -0.2886751   0.4082481), wk =   0.0101010
        k(   46) = (   0.5083333  -0.2742413   0.4082481), wk =   0.0101010
        k(   47) = (   0.5166667  -0.2598076   0.4082481), wk =   0.0101010
        k(   48) = (   0.5250000  -0.2453738   0.4082481), wk =   0.0101010
        k(   49) = (   0.5333333  -0.2309400   0.4082481), wk =   0.0101010
        k(   50) = (   0.5416667  -0.2165063   0.4082481), wk =   0.0101010
        k(   51) = (   0.5500000  -0.2020725   0.4082481), wk =   0.0101010
        k(   52) = (   0.5583333  -0.1876388   0.4082481), wk =   0.0101010
        k(   53) = (   0.5666667  -0.1732050   0.4082481), wk =   0.0101010
        k(   54) = (   0.5750000  -0.1587713   0.4082481), wk =   0.0101010
        k(   55) = (   0.5833333  -0.1443375   0.4082481), wk =   0.0101010
        k(   56) = (   0.5916667  -0.1299038   0.4082481), wk =   0.0101010
        k(   57) = (   0.6000000  -0.1154700   0.4082481), wk =   0.0101010
        k(   58) = (   0.6083333  -0.1010363   0.4082481), wk =   0.0101010
        k(   59) = (   0.6166667  -0.0866025   0.4082481), wk =   0.0101010
        k(   60) = (   0.6250000  -0.0721688   0.4082481), wk =   0.0101010
        k(   61) = (   0.3749999   0.2165063   0.6123724), wk =   0.0101010
        k(   62) = (   0.3670212   0.2118998   0.5993432), wk =   0.0101010
        k(   63) = (   0.3590425   0.2072932   0.5863140), wk =   0.0101010
        k(   64) = (   0.3510638   0.2026867   0.5732848), wk =   0.0101010
        k(   65) = (   0.3430850   0.1980802   0.5602556), wk =   0.0101010
        k(   66) = (   0.3351063   0.1934737   0.5472264), wk =   0.0101010
        k(   67) = (   0.3271276   0.1888672   0.5341972), wk =   0.0101010
        k(   68) = (   0.3191489   0.1842607   0.5211680), wk =   0.0101010
        k(   69) = (   0.3111701   0.1796541   0.5081388), wk =   0.0101010
        k(   70) = (   0.3031914   0.1750476   0.4951096), wk =   0.0101010
        k(   71) = (   0.2952127   0.1704411   0.4820804), wk =   0.0101010
        k(   72) = (   0.2872340   0.1658346   0.4690512), wk =   0.0101010
        k(   73) = (   0.2792553   0.1612281   0.4560220), wk =   0.0101010
        k(   74) = (   0.2712765   0.1566216   0.4429928), wk =   0.0101010
        k(   75) = (   0.2632978   0.1520150   0.4299636), wk =   0.0101010
        k(   76) = (   0.2553191   0.1474085   0.4169344), wk =   0.0101010
        k(   77) = (   0.2473404   0.1428020   0.4039052), wk =   0.0101010
        k(   78) = (   0.2393617   0.1381955   0.3908760), wk =   0.0101010
        k(   79) = (   0.2313829   0.1335890   0.3778468), wk =   0.0101010
        k(   80) = (   0.2234042   0.1289825   0.3648176), wk =   0.0101010
        k(   81) = (   0.2154255   0.1243759   0.3517884), wk =   0.0101010
        k(   82) = (   0.2074468   0.1197694   0.3387592), wk =   0.0101010
        k(   83) = (   0.1994680   0.1151629   0.3257300), wk =   0.0101010
        k(   84) = (   0.1914893   0.1105564   0.3127008), wk =   0.0101010
        k(   85) = (   0.1835106   0.1059499   0.2996716), wk =   0.0101010
        k(   86) = (   0.1755319   0.1013434   0.2866424), wk =   0.0101010
        k(   87) = (   0.1675532   0.0967368   0.2736132), wk =   0.0101010
        k(   88) = (   0.1595744   0.0921303   0.2605840), wk =   0.0101010
        k(   89) = (   0.1515957   0.0875238   0.2475548), wk =   0.0101010
        k(   90) = (   0.1436170   0.0829173   0.2345256), wk =   0.0101010
        k(   91) = (   0.1356383   0.0783108   0.2214964), wk =   0.0101010
        k(   92) = (   0.1276595   0.0737043   0.2084672), wk =   0.0101010
        k(   93) = (   0.1196808   0.0690977   0.1954380), wk =   0.0101010
        k(   94) = (   0.1117021   0.0644912   0.1824088), wk =   0.0101010
        k(   95) = (   0.1037234   0.0598847   0.1693796), wk =   0.0101010
        k(   96) = (   0.0957447   0.0552782   0.1563504), wk =   0.0101010
        k(   97) = (   0.0877659   0.0506717   0.1433212), wk =   0.0101010
        k(   98) = (   0.0797872   0.0460652   0.1302920), wk =   0.0101010
        k(   99) = (   0.0718085   0.0414586   0.1172628), wk =   0.0101010
        k(  100) = (   0.0638298   0.0368521   0.1042336), wk =   0.0101010
        k(  101) = (   0.0558511   0.0322456   0.0912044), wk =   0.0101010
        k(  102) = (   0.0478723   0.0276391   0.0781752), wk =   0.0101010
        k(  103) = (   0.0398936   0.0230326   0.0651460), wk =   0.0101010
        k(  104) = (   0.0319149   0.0184261   0.0521168), wk =   0.0101010
        k(  105) = (   0.0239362   0.0138195   0.0390876), wk =   0.0101010
        k(  106) = (   0.0159574   0.0092130   0.0260584), wk =   0.0101010
        k(  107) = (   0.0079787   0.0046065   0.0130292), wk =   0.0101010
        k(  108) = (   0.0000000   0.0000000   0.0000000), wk =   0.0101010
        k(  109) = (   0.0131579   0.0075967   0.0053717), wk =   0.0101010
        k(  110) = (   0.0263158   0.0151934   0.0107434), wk =   0.0101010
        k(  111) = (   0.0394737   0.0227901   0.0161151), wk =   0.0101010
        k(  112) = (   0.0526316   0.0303868   0.0214868), wk =   0.0101010
        k(  113) = (   0.0657895   0.0379836   0.0268584), wk =   0.0101010
        k(  114) = (   0.0789474   0.0455803   0.0322301), wk =   0.0101010
        k(  115) = (   0.0921053   0.0531770   0.0376018), wk =   0.0101010
        k(  116) = (   0.1052631   0.0607737   0.0429735), wk =   0.0101010
        k(  117) = (   0.1184210   0.0683704   0.0483452), wk =   0.0101010
        k(  118) = (   0.1315789   0.0759671   0.0537169), wk =   0.0101010
        k(  119) = (   0.1447368   0.0835638   0.0590886), wk =   0.0101010
        k(  120) = (   0.1578947   0.0911605   0.0644603), wk =   0.0101010
        k(  121) = (   0.1710526   0.0987573   0.0698320), wk =   0.0101010
        k(  122) = (   0.1842105   0.1063540   0.0752036), wk =   0.0101010
        k(  123) = (   0.1973684   0.1139507   0.0805753), wk =   0.0101010
        k(  124) = (   0.2105263   0.1215474   0.0859470), wk =   0.0101010
        k(  125) = (   0.2236842   0.1291441   0.0913187), wk =   0.0101010
        k(  126) = (   0.2368421   0.1367408   0.0966904), wk =   0.0101010
        k(  127) = (   0.2500000   0.1443375   0.1020621), wk =   0.0101010
        k(  128) = (   0.2631579   0.1519342   0.1074338), wk =   0.0101010
        k(  129) = (   0.2763158   0.1595310   0.1128055), wk =   0.0101010
        k(  130) = (   0.2894736   0.1671277   0.1181772), wk =   0.0101010
        k(  131) = (   0.3026315   0.1747244   0.1235488), wk =   0.0101010
        k(  132) = (   0.3157894   0.1823211   0.1289205), wk =   0.0101010
        k(  133) = (   0.3289473   0.1899178   0.1342922), wk =   0.0101010
        k(  134) = (   0.3421052   0.1975145   0.1396639), wk =   0.0101010
        k(  135) = (   0.3552631   0.2051112   0.1450356), wk =   0.0101010
        k(  136) = (   0.3684210   0.2127079   0.1504073), wk =   0.0101010
        k(  137) = (   0.3815789   0.2203047   0.1557790), wk =   0.0101010
        k(  138) = (   0.3947368   0.2279014   0.1611507), wk =   0.0101010
        k(  139) = (   0.4078947   0.2354981   0.1665224), wk =   0.0101010
        k(  140) = (   0.4210526   0.2430948   0.1718940), wk =   0.0101010
        k(  141) = (   0.4342105   0.2506915   0.1772657), wk =   0.0101010
        k(  142) = (   0.4473684   0.2582882   0.1826374), wk =   0.0101010
        k(  143) = (   0.4605263   0.2658849   0.1880091), wk =   0.0101010
        k(  144) = (   0.4736842   0.2734816   0.1933808), wk =   0.0101010
        k(  145) = (   0.4868420   0.2810783   0.1987525), wk =   0.0101010
        k(  146) = (   0.4999999   0.2886751   0.2041242), wk =   0.0101010
        k(  147) = (   0.4999999   0.2793630   0.2172935), wk =   0.0101010
        k(  148) = (   0.4999999   0.2700509   0.2304628), wk =   0.0101010
        k(  149) = (   0.4999999   0.2607388   0.2436321), wk =   0.0101010
        k(  150) = (   0.4999999   0.2514267   0.2568014), wk =   0.0101010
        k(  151) = (   0.4999999   0.2421146   0.2699706), wk =   0.0101010
        k(  152) = (   0.4999999   0.2328025   0.2831399), wk =   0.0101010
        k(  153) = (   0.4999999   0.2234904   0.2963092), wk =   0.0101010
        k(  154) = (   0.4999999   0.2141783   0.3094785), wk =   0.0101010
        k(  155) = (   0.4999999   0.2048662   0.3226478), wk =   0.0101010
        k(  156) = (   0.4999999   0.1955541   0.3358171), wk =   0.0101010
        k(  157) = (   0.4999999   0.1862420   0.3489864), wk =   0.0101010
        k(  158) = (   0.4999999   0.1769299   0.3621557), wk =   0.0101010
        k(  159) = (   0.4999999   0.1676178   0.3753250), wk =   0.0101010
        k(  160) = (   0.4999999   0.1583057   0.3884943), wk =   0.0101010
        k(  161) = (   0.4999999   0.1489936   0.4016636), wk =   0.0101010
        k(  162) = (   0.4999999   0.1396815   0.4148329), wk =   0.0101010
        k(  163) = (   0.4999999   0.1303694   0.4280022), wk =   0.0101010
        k(  164) = (   0.4999999   0.1210573   0.4411715), wk =   0.0101010
        k(  165) = (   0.5000000   0.1117452   0.4543408), wk =   0.0101010
        k(  166) = (   0.5000000   0.1024331   0.4675101), wk =   0.0101010
        k(  167) = (   0.5000000   0.0931210   0.4806794), wk =   0.0101010
        k(  168) = (   0.5000000   0.0838089   0.4938487), wk =   0.0101010
        k(  169) = (   0.5000000   0.0744968   0.5070180), wk =   0.0101010
        k(  170) = (   0.5000000   0.0651847   0.5201872), wk =   0.0101010
        k(  171) = (   0.5000000   0.0558726   0.5333565), wk =   0.0101010
        k(  172) = (   0.5000000   0.0465605   0.5465258), wk =   0.0101010
        k(  173) = (   0.5000000   0.0372484   0.5596951), wk =   0.0101010
        k(  174) = (   0.5000000   0.0279363   0.5728644), wk =   0.0101010
        k(  175) = (   0.5000000   0.0186242   0.5860337), wk =   0.0101010
        k(  176) = (   0.5000000   0.0093121   0.5992030), wk =   0.0101010
        k(  177) = (   0.5000000  -0.0000000   0.6123723), wk =   0.0101010
        k(  178) = (   0.5000000  -0.0137464   0.6026521), wk =   0.0101010
        k(  179) = (   0.5000000  -0.0274929   0.5929319), wk =   0.0101010
        k(  180) = (   0.5000000  -0.0412393   0.5832117), wk =   0.0101010
        k(  181) = (   0.5000000  -0.0549857   0.5734915), wk =   0.0101010
        k(  182) = (   0.5000000  -0.0687322   0.5637713), wk =   0.0101010
        k(  183) = (   0.5000000  -0.0824786   0.5540511), wk =   0.0101010
        k(  184) = (   0.5000000  -0.0962250   0.5443309), wk =   0.0101010
        k(  185) = (   0.5000000  -0.1099715   0.5346107), wk =   0.0101010
        k(  186) = (   0.5000000  -0.1237179   0.5248905), wk =   0.0101010
        k(  187) = (   0.5000000  -0.1374643   0.5151703), wk =   0.0101010
        k(  188) = (   0.5000000  -0.1512108   0.5054501), wk =   0.0101010
        k(  189) = (   0.5000000  -0.1649572   0.4957299), wk =   0.0101010
        k(  190) = (   0.5000000  -0.1787036   0.4860097), wk =   0.0101010
        k(  191) = (   0.5000000  -0.1924500   0.4762895), wk =   0.0101010
        k(  192) = (   0.5000000  -0.2061965   0.4665693), wk =   0.0101010
        k(  193) = (   0.5000000  -0.2199429   0.4568491), wk =   0.0101010
        k(  194) = (   0.5000000  -0.2336893   0.4471289), wk =   0.0101010
        k(  195) = (   0.5000000  -0.2474358   0.4374087), wk =   0.0101010
        k(  196) = (   0.5000000  -0.2611822   0.4276885), wk =   0.0101010
        k(  197) = (   0.5000000  -0.2749286   0.4179683), wk =   0.0101010
        k(  198) = (   0.5000000  -0.2886751   0.4082481), wk =   0.0101010

                       cryst. coord.
        k(    1) = (   0.0000000   0.0000000   0.0000000), wk =   0.0101010
        k(    2) = (   0.0113636   0.0000000   0.0113636), wk =   0.0101010
        k(    3) = (   0.0227273  -0.0000000   0.0227273), wk =   0.0101010
        k(    4) = (   0.0340909   0.0000000   0.0340909), wk =   0.0101010
        k(    5) = (   0.0454545   0.0000000   0.0454545), wk =   0.0101010
        k(    6) = (   0.0568182  -0.0000000   0.0568182), wk =   0.0101010
        k(    7) = (   0.0681818   0.0000000   0.0681818), wk =   0.0101010
        k(    8) = (   0.0795455   0.0000000   0.0795455), wk =   0.0101010
        k(    9) = (   0.0909091  -0.0000000   0.0909091), wk =   0.0101010
        k(   10) = (   0.1022727   0.0000000   0.1022727), wk =   0.0101010
        k(   11) = (   0.1136364  -0.0000000   0.1136364), wk =   0.0101010
        k(   12) = (   0.1250000   0.0000000   0.1250000), wk =   0.0101010
        k(   13) = (   0.1363636   0.0000000   0.1363636), wk =   0.0101010
        k(   14) = (   0.1477273  -0.0000000   0.1477273), wk =   0.0101010
        k(   15) = (   0.1590909   0.0000000   0.1590909), wk =   0.0101010
        k(   16) = (   0.1704545  -0.0000000   0.1704545), wk =   0.0101010
        k(   17) = (   0.1818182  -0.0000000   0.1818182), wk =   0.0101010
        k(   18) = (   0.1931818   0.0000000   0.1931818), wk =   0.0101010
        k(   19) = (   0.2045455   0.0000000   0.2045455), wk =   0.0101010
        k(   20) = (   0.2159091   0.0000000   0.2159091), wk =   0.0101010
        k(   21) = (   0.2272727   0.0000000   0.2272727), wk =   0.0101010
        k(   22) = (   0.2386364  -0.0000000   0.2386364), wk =   0.0101010
        k(   23) = (   0.2500000   0.0000000   0.2500000), wk =   0.0101010
        k(   24) = (   0.2613636  -0.0000000   0.2613636), wk =   0.0101010
        k(   25) = (   0.2727273   0.0000000   0.2727273), wk =   0.0101010
        k(   26) = (   0.2840909   0.0000000   0.2840909), wk =   0.0101010
        k(   27) = (   0.2954545   0.0000000   0.2954545), wk =   0.0101010
        k(   28) = (   0.3068182   0.0000000   0.3068182), wk =   0.0101010
        k(   29) = (   0.3181818   0.0000000   0.3181818), wk =   0.0101010
        k(   30) = (   0.3295455   0.0000000   0.3295455), wk =   0.0101010
        k(   31) = (   0.3409091   0.0000000   0.3409091), wk =   0.0101010
        k(   32) = (   0.3522727   0.0000000   0.3522727), wk =   0.0101010
        k(   33) = (   0.3636364  -0.0000000   0.3636364), wk =   0.0101010
        k(   34) = (   0.3750000   0.0000000   0.3750000), wk =   0.0101010
        k(   35) = (   0.3863636   0.0000000   0.3863636), wk =   0.0101010
        k(   36) = (   0.3977273   0.0000000   0.3977273), wk =   0.0101010
        k(   37) = (   0.4090909   0.0000000   0.4090909), wk =   0.0101010
        k(   38) = (   0.4204545   0.0000000   0.4204545), wk =   0.0101010
        k(   39) = (   0.4318182   0.0000000   0.4318182), wk =   0.0101010
        k(   40) = (   0.4431818  -0.0000000   0.4431818), wk =   0.0101010
        k(   41) = (   0.4545455   0.0000000   0.4545455), wk =   0.0101010
        k(   42) = (   0.4659091   0.0000000   0.4659091), wk =   0.0101010
        k(   43) = (   0.4772727  -0.0000000   0.4772727), wk =   0.0101010
        k(   44) = (   0.4886364  -0.0000000   0.4886364), wk =   0.0101010
        k(   45) = (   0.5000000   0.0000000   0.5000000), wk =   0.0101010
        k(   46) = (   0.5083333   0.0166667   0.5083333), wk =   0.0101010
        k(   47) = (   0.5166667   0.0333333   0.5166667), wk =   0.0101010
        k(   48) = (   0.5250000   0.0500000   0.5250000), wk =   0.0101010
        k(   49) = (   0.5333333   0.0666667   0.5333333), wk =   0.0101010
        k(   50) = (   0.5416667   0.0833333   0.5416667), wk =   0.0101010
        k(   51) = (   0.5500000   0.1000000   0.5500000), wk =   0.0101010
        k(   52) = (   0.5583333   0.1166667   0.5583333), wk =   0.0101010
        k(   53) = (   0.5666667   0.1333333   0.5666667), wk =   0.0101010
        k(   54) = (   0.5750000   0.1500000   0.5750000), wk =   0.0101010
        k(   55) = (   0.5833333   0.1666667   0.5833333), wk =   0.0101010
        k(   56) = (   0.5916667   0.1833333   0.5916667), wk =   0.0101010
        k(   57) = (   0.6000000   0.2000000   0.6000000), wk =   0.0101010
        k(   58) = (   0.6083333   0.2166667   0.6083333), wk =   0.0101010
        k(   59) = (   0.6166667   0.2333333   0.6166667), wk =   0.0101010
        k(   60) = (   0.6250000   0.2500000   0.6250000), wk =   0.0101010
        k(   61) = (   0.3750000   0.3750000   0.7500000), wk =   0.0101010
        k(   62) = (   0.3670213   0.3670213   0.7340426), wk =   0.0101010
        k(   63) = (   0.3590426   0.3590426   0.7180851), wk =   0.0101010
        k(   64) = (   0.3510638   0.3510638   0.7021277), wk =   0.0101010
        k(   65) = (   0.3430851   0.3430851   0.6861702), wk =   0.0101010
        k(   66) = (   0.3351064   0.3351064   0.6702128), wk =   0.0101010
        k(   67) = (   0.3271277   0.3271277   0.6542553), wk =   0.0101010
        k(   68) = (   0.3191489   0.3191489   0.6382979), wk =   0.0101010
        k(   69) = (   0.3111702   0.3111702   0.6223404), wk =   0.0101010
        k(   70) = (   0.3031915   0.3031915   0.6063830), wk =   0.0101010
        k(   71) = (   0.2952128   0.2952128   0.5904255), wk =   0.0101010
        k(   72) = (   0.2872340   0.2872340   0.5744681), wk =   0.0101010
        k(   73) = (   0.2792553   0.2792553   0.5585106), wk =   0.0101010
        k(   74) = (   0.2712766   0.2712766   0.5425532), wk =   0.0101010
        k(   75) = (   0.2632979   0.2632979   0.5265957), wk =   0.0101010
        k(   76) = (   0.2553191   0.2553191   0.5106383), wk =   0.0101010
        k(   77) = (   0.2473404   0.2473404   0.4946809), wk =   0.0101010
        k(   78) = (   0.2393617   0.2393617   0.4787234), wk =   0.0101010
        k(   79) = (   0.2313830   0.2313830   0.4627660), wk =   0.0101010
        k(   80) = (   0.2234043   0.2234043   0.4468085), wk =   0.0101010
        k(   81) = (   0.2154255   0.2154255   0.4308511), wk =   0.0101010
        k(   82) = (   0.2074468   0.2074468   0.4148936), wk =   0.0101010
        k(   83) = (   0.1994681   0.1994681   0.3989362), wk =   0.0101010
        k(   84) = (   0.1914894   0.1914894   0.3829787), wk =   0.0101010
        k(   85) = (   0.1835106   0.1835106   0.3670213), wk =   0.0101010
        k(   86) = (   0.1755319   0.1755319   0.3510638), wk =   0.0101010
        k(   87) = (   0.1675532   0.1675532   0.3351064), wk =   0.0101010
        k(   88) = (   0.1595745   0.1595745   0.3191489), wk =   0.0101010
        k(   89) = (   0.1515957   0.1515957   0.3031915), wk =   0.0101010
        k(   90) = (   0.1436170   0.1436170   0.2872340), wk =   0.0101010
        k(   91) = (   0.1356383   0.1356383   0.2712766), wk =   0.0101010
        k(   92) = (   0.1276596   0.1276596   0.2553191), wk =   0.0101010
        k(   93) = (   0.1196809   0.1196809   0.2393617), wk =   0.0101010
        k(   94) = (   0.1117021   0.1117021   0.2234043), wk =   0.0101010
        k(   95) = (   0.1037234   0.1037234   0.2074468), wk =   0.0101010
        k(   96) = (   0.0957447   0.0957447   0.1914894), wk =   0.0101010
        k(   97) = (   0.0877660   0.0877660   0.1755319), wk =   0.0101010
        k(   98) = (   0.0797872   0.0797872   0.1595745), wk =   0.0101010
        k(   99) = (   0.0718085   0.0718085   0.1436170), wk =   0.0101010
        k(  100) = (   0.0638298   0.0638298   0.1276596), wk =   0.0101010
        k(  101) = (   0.0558511   0.0558511   0.1117021), wk =   0.0101010
        k(  102) = (   0.0478723   0.0478723   0.0957447), wk =   0.0101010
        k(  103) = (   0.0398936   0.0398936   0.0797872), wk =   0.0101010
        k(  104) = (   0.0319149   0.0319149   0.0638298), wk =   0.0101010
        k(  105) = (   0.0239362   0.0239362   0.0478723), wk =   0.0101010
        k(  106) = (   0.0159574   0.0159574   0.0319149), wk =   0.0101010
        k(  107) = (   0.0079787   0.0079787   0.0159574), wk =   0.0101010
        k(  108) = (   0.0000000   0.0000000   0.0000000), wk =   0.0101010
        k(  109) = (   0.0131579   0.0131579   0.0131579), wk =   0.0101010
        k(  110) = (   0.0263158   0.0263158   0.0263158), wk =   0.0101010
        k(  111) = (   0.0394737   0.0394737   0.0394737), wk =   0.0101010
        k(  112) = (   0.0526316   0.0526316   0.0526316), wk =   0.0101010
        k(  113) = (   0.0657895   0.0657895   0.0657895), wk =   0.0101010
        k(  114) = (   0.0789474   0.0789474   0.0789474), wk =   0.0101010
        k(  115) = (   0.0921053   0.0921053   0.0921053), wk =   0.0101010
        k(  116) = (   0.1052632   0.1052632   0.1052632), wk =   0.0101010
        k(  117) = (   0.1184211   0.1184211   0.1184211), wk =   0.0101010
        k(  118) = (   0.1315789   0.1315789   0.1315789), wk =   0.0101010
        k(  119) = (   0.1447368   0.1447368   0.1447368), wk =   0.0101010
        k(  120) = (   0.1578947   0.1578947   0.1578947), wk =   0.0101010
        k(  121) = (   0.1710526   0.1710526   0.1710526), wk =   0.0101010
        k(  122) = (   0.1842105   0.1842105   0.1842105), wk =   0.0101010
        k(  123) = (   0.1973684   0.1973684   0.1973684), wk =   0.0101010
        k(  124) = (   0.2105263   0.2105263   0.2105263), wk =   0.0101010
        k(  125) = (   0.2236842   0.2236842   0.2236842), wk =   0.0101010
        k(  126) = (   0.2368421   0.2368421   0.2368421), wk =   0.0101010
        k(  127) = (   0.2500000   0.2500000   0.2500000), wk =   0.0101010
        k(  128) = (   0.2631579   0.2631579   0.2631579), wk =   0.0101010
        k(  129) = (   0.2763158   0.2763158   0.2763158), wk =   0.0101010
        k(  130) = (   0.2894737   0.2894737   0.2894737), wk =   0.0101010
        k(  131) = (   0.3026316   0.3026316   0.3026316), wk =   0.0101010
        k(  132) = (   0.3157895   0.3157895   0.3157895), wk =   0.0101010
        k(  133) = (   0.3289474   0.3289474   0.3289474), wk =   0.0101010
        k(  134) = (   0.3421053   0.3421053   0.3421053), wk =   0.0101010
        k(  135) = (   0.3552632   0.3552632   0.3552632), wk =   0.0101010
        k(  136) = (   0.3684211   0.3684211   0.3684211), wk =   0.0101010
        k(  137) = (   0.3815789   0.3815789   0.3815789), wk =   0.0101010
        k(  138) = (   0.3947368   0.3947368   0.3947368), wk =   0.0101010
        k(  139) = (   0.4078947   0.4078947   0.4078947), wk =   0.0101010
        k(  140) = (   0.4210526   0.4210526   0.4210526), wk =   0.0101010
        k(  141) = (   0.4342105   0.4342105   0.4342105), wk =   0.0101010
        k(  142) = (   0.4473684   0.4473684   0.4473684), wk =   0.0101010
        k(  143) = (   0.4605263   0.4605263   0.4605263), wk =   0.0101010
        k(  144) = (   0.4736842   0.4736842   0.4736842), wk =   0.0101010
        k(  145) = (   0.4868421   0.4868421   0.4868421), wk =   0.0101010
        k(  146) = (   0.5000000   0.5000000   0.5000000), wk =   0.0101010
        k(  147) = (   0.5000000   0.4919355   0.5080645), wk =   0.0101010
        k(  148) = (   0.5000000   0.4838710   0.5161290), wk =   0.0101010
        k(  149) = (   0.5000000   0.4758065   0.5241935), wk =   0.0101010
        k(  150) = (   0.5000000   0.4677419   0.5322581), wk =   0.0101010
        k(  151) = (   0.5000000   0.4596774   0.5403226), wk =   0.0101010
        k(  152) = (   0.5000000   0.4516129   0.5483871), wk =   0.0101010
        k(  153) = (   0.5000000   0.4435484   0.5564516), wk =   0.0101010
        k(  154) = (   0.5000000   0.4354839   0.5645161), wk =   0.0101010
        k(  155) = (   0.5000000   0.4274194   0.5725806), wk =   0.0101010
        k(  156) = (   0.5000000   0.4193548   0.5806452), wk =   0.0101010
        k(  157) = (   0.5000000   0.4112903   0.5887097), wk =   0.0101010
        k(  158) = (   0.5000000   0.4032258   0.5967742), wk =   0.0101010
        k(  159) = (   0.5000000   0.3951613   0.6048387), wk =   0.0101010
        k(  160) = (   0.5000000   0.3870968   0.6129032), wk =   0.0101010
        k(  161) = (   0.5000000   0.3790323   0.6209677), wk =   0.0101010
        k(  162) = (   0.5000000   0.3709677   0.6290323), wk =   0.0101010
        k(  163) = (   0.5000000   0.3629032   0.6370968), wk =   0.0101010
        k(  164) = (   0.5000000   0.3548387   0.6451613), wk =   0.0101010
        k(  165) = (   0.5000000   0.3467742   0.6532258), wk =   0.0101010
        k(  166) = (   0.5000000   0.3387097   0.6612903), wk =   0.0101010
        k(  167) = (   0.5000000   0.3306452   0.6693548), wk =   0.0101010
        k(  168) = (   0.5000000   0.3225806   0.6774194), wk =   0.0101010
        k(  169) = (   0.5000000   0.3145161   0.6854839), wk =   0.0101010
        k(  170) = (   0.5000000   0.3064516   0.6935484), wk =   0.0101010
        k(  171) = (   0.5000000   0.2983871   0.7016129), wk =   0.0101010
        k(  172) = (   0.5000000   0.2903226   0.7096774), wk =   0.0101010
        k(  173) = (   0.5000000   0.2822581   0.7177419), wk =   0.0101010
        k(  174) = (   0.5000000   0.2741935   0.7258065), wk =   0.0101010
        k(  175) = (   0.5000000   0.2661290   0.7338710), wk =   0.0101010
        k(  176) = (   0.5000000   0.2580645   0.7419355), wk =   0.0101010
        k(  177) = (   0.5000000   0.2500000   0.7500000), wk =   0.0101010
        k(  178) = (   0.5000000   0.2380952   0.7380952), wk =   0.0101010
        k(  179) = (   0.5000000   0.2261905   0.7261905), wk =   0.0101010
        k(  180) = (   0.5000000   0.2142857   0.7142857), wk =   0.0101010
        k(  181) = (   0.5000000   0.2023810   0.7023810), wk =   0.0101010
        k(  182) = (   0.5000000   0.1904762   0.6904762), wk =   0.0101010
        k(  183) = (   0.5000000   0.1785714   0.6785714), wk =   0.0101010
        k(  184) = (   0.5000000   0.1666667   0.6666667), wk =   0.0101010
        k(  185) = (   0.5000000   0.1547619   0.6547619), wk =   0.0101010
        k(  186) = (   0.5000000   0.1428571   0.6428571), wk =   0.0101010
        k(  187) = (   0.5000000   0.1309524   0.6309524), wk =   0.0101010
        k(  188) = (   0.5000000   0.1190476   0.6190476), wk =   0.0101010
        k(  189) = (   0.5000000   0.1071429   0.6071429), wk =   0.0101010
        k(  190) = (   0.5000000   0.0952381   0.5952381), wk =   0.0101010
        k(  191) = (   0.5000000   0.0833333   0.5833333), wk =   0.0101010
        k(  192) = (   0.5000000   0.0714286   0.5714286), wk =   0.0101010
        k(  193) = (   0.5000000   0.0595238   0.5595238), wk =   0.0101010
        k(  194) = (   0.5000000   0.0476190   0.5476190), wk =   0.0101010
        k(  195) = (   0.5000000   0.0357143   0.5357143), wk =   0.0101010
        k(  196) = (   0.5000000   0.0238095   0.5238095), wk =   0.0101010
        k(  197) = (   0.5000000   0.0119048   0.5119048), wk =   0.0101010
        k(  198) = (   0.5000000   0.0000000   0.5000000), wk =   0.0101010

     Dense  grid:    75457 G-vectors     FFT dimensions: (  60,  60,  60)

     Dynamical RAM for                 wfc:       0.46 MB

     Dynamical RAM for     wfc (w. buffer):       0.46 MB

     Dynamical RAM for           str. fact:       0.10 MB

     Dynamical RAM for           local pot:       0.00 MB

     Dynamical RAM for          nlocal pot:       1.54 MB

     Dynamical RAM for                qrad:       0.29 MB

     Dynamical RAM for          rho,v,vnew:       1.40 MB

     Dynamical RAM for           G-vectors:       0.41 MB

     Dynamical RAM for          h,s,v(r/c):       0.07 MB

     Dynamical RAM for          <psi|beta>:       0.07 MB

     Dynamical RAM for      wfcinit/wfcrot:       0.94 MB

     Estimated static dynamical RAM per process >       5.20 MB

     Estimated max dynamical RAM per process >       6.15 MB

     Estimated total dynamical RAM >     295.00 MB

     WARNING: libxc functional with ID  497 depends
      on external parameters: check the user_guide of
      QE if you need to modify them or to check their
      default values.

     WARNING: libxc functional with ID  498 depends
      on external parameters: check the user_guide of
      QE if you need to modify them or to check their
      default values.
     Reading meta-gga kinetic term

     The potential is recalculated from file :
     ./outdir_kpt_888_ecutWfc_40_ecutrho_160_scf_bands/Si.save/charge-density

     Starting wfcs are random

     Band Structure Calculation
     CG style diagonalization

     Computing kpt #:     1  of    50 on this pool
     total cpu time spent up to now is        6.2 secs

     Computing kpt #:     2  of    50 on this pool
     total cpu time spent up to now is       11.0 secs

     Computing kpt #:     3  of    50 on this pool
     total cpu time spent up to now is       15.9 secs

     Computing kpt #:     4  of    50 on this pool
     total cpu time spent up to now is       20.8 secs

     Computing kpt #:     5  of    50 on this pool
     total cpu time spent up to now is       25.4 secs

     Computing kpt #:     6  of    50 on this pool
     total cpu time spent up to now is       29.9 secs

     Computing kpt #:     7  of    50 on this pool
     total cpu time spent up to now is       34.2 secs

     Computing kpt #:     8  of    50 on this pool
     total cpu time spent up to now is       38.4 secs

     Computing kpt #:     9  of    50 on this pool
     total cpu time spent up to now is       43.4 secs

     Computing kpt #:    10  of    50 on this pool
     total cpu time spent up to now is       48.0 secs

     Computing kpt #:    11  of    50 on this pool
     total cpu time spent up to now is       52.3 secs

     Computing kpt #:    12  of    50 on this pool
     total cpu time spent up to now is       56.9 secs

     Computing kpt #:    13  of    50 on this pool
     total cpu time spent up to now is       61.0 secs

     Computing kpt #:    14  of    50 on this pool
     total cpu time spent up to now is       65.4 secs

     Computing kpt #:    15  of    50 on this pool
     total cpu time spent up to now is       69.5 secs

     Computing kpt #:    16  of    50 on this pool
     total cpu time spent up to now is       73.7 secs

     Computing kpt #:    17  of    50 on this pool
     total cpu time spent up to now is       77.8 secs

     Computing kpt #:    18  of    50 on this pool
     total cpu time spent up to now is       81.8 secs

     Computing kpt #:    19  of    50 on this pool
     total cpu time spent up to now is       85.9 secs

     Computing kpt #:    20  of    50 on this pool
     total cpu time spent up to now is       90.0 secs

     Computing kpt #:    21  of    50 on this pool
     total cpu time spent up to now is       94.0 secs

     Computing kpt #:    22  of    50 on this pool
     total cpu time spent up to now is       98.2 secs

     Computing kpt #:    23  of    50 on this pool
     total cpu time spent up to now is      102.4 secs

     Computing kpt #:    24  of    50 on this pool
     total cpu time spent up to now is      106.8 secs

     Computing kpt #:    25  of    50 on this pool
     total cpu time spent up to now is      111.2 secs

     Computing kpt #:    26  of    50 on this pool
     total cpu time spent up to now is      115.1 secs

     Computing kpt #:    27  of    50 on this pool
     total cpu time spent up to now is      119.3 secs

     Computing kpt #:    28  of    50 on this pool
     total cpu time spent up to now is      123.5 secs

     Computing kpt #:    29  of    50 on this pool
     total cpu time spent up to now is      127.6 secs

     Computing kpt #:    30  of    50 on this pool
     total cpu time spent up to now is      132.0 secs

     Computing kpt #:    31  of    50 on this pool
     total cpu time spent up to now is      136.6 secs

     Computing kpt #:    32  of    50 on this pool
     total cpu time spent up to now is      140.9 secs

     Computing kpt #:    33  of    50 on this pool
     total cpu time spent up to now is      145.3 secs

     Computing kpt #:    34  of    50 on this pool
     total cpu time spent up to now is      149.5 secs

     Computing kpt #:    35  of    50 on this pool
     total cpu time spent up to now is      153.8 secs

     Computing kpt #:    36  of    50 on this pool
     total cpu time spent up to now is      158.1 secs

     Computing kpt #:    37  of    50 on this pool
     total cpu time spent up to now is      162.4 secs

     Computing kpt #:    38  of    50 on this pool
     total cpu time spent up to now is      166.7 secs

     Computing kpt #:    39  of    50 on this pool
     total cpu time spent up to now is      170.8 secs

     Computing kpt #:    40  of    50 on this pool
     total cpu time spent up to now is      176.7 secs

     Computing kpt #:    41  of    50 on this pool
     total cpu time spent up to now is      181.1 secs

     Computing kpt #:    42  of    50 on this pool
     total cpu time spent up to now is      185.6 secs

     Computing kpt #:    43  of    50 on this pool
     total cpu time spent up to now is      190.7 secs

     Computing kpt #:    44  of    50 on this pool
     total cpu time spent up to now is      195.3 secs

     Computing kpt #:    45  of    50 on this pool
     total cpu time spent up to now is      199.7 secs

     Computing kpt #:    46  of    50 on this pool
     total cpu time spent up to now is      204.3 secs

     Computing kpt #:    47  of    50 on this pool
     total cpu time spent up to now is      209.2 secs

     Computing kpt #:    48  of    50 on this pool
     total cpu time spent up to now is      214.1 secs

     Computing kpt #:    49  of    50 on this pool
     total cpu time spent up to now is      218.9 secs

     Computing kpt #:    50  of    50 on this pool
     total cpu time spent up to now is      223.8 secs

     ethr =  1.00E-08,  avg # of iterations = 38.2

     total cpu time spent up to now is      223.9 secs

     End of band structure calculation

          k = 0.0000 0.0000 0.0000 (  9409 PWs)   bands (ev):

    -6.5730  -4.1881  -4.1881  -4.1881  -4.1881  -2.2865  -2.2865  -2.2865
    -2.2865  -2.2865  -2.2865  -1.3148  -1.3148  -1.3148  -1.3148   2.9637
     2.9637   2.9637   2.9637   2.9637   2.9637   4.6726   4.6726   4.6726
     4.6726   4.6726   4.6726   4.6726   4.6726   5.9402   5.9402   5.9402
     6.8385   6.8385   6.8385   6.8385   6.8385   6.8385

          k = 0.0114-0.0066 0.0093 (  9409 PWs)   bands (ev):

    -6.5724  -4.1885  -4.1885  -4.1885  -4.1885  -2.3773  -2.2864  -2.2863
    -2.2863  -2.2863  -2.1950  -1.3134  -1.3134  -1.3134  -1.3134   2.9620
     2.9620   2.9620   2.9622   2.9641   2.9641   4.6685   4.6685   4.6685
     4.6685   4.6724   4.6724   4.6724   4.6724   5.9359   5.9376   5.9376
     6.8176   6.8416   6.8416   6.8416   6.8416   6.8609

          k = 0.0227-0.0131 0.0186 (  9405 PWs)   bands (ev):

    -6.5707  -4.1898  -4.1898  -4.1898  -4.1898  -2.4674  -2.2858  -2.2858
    -2.2858  -2.2858  -2.1028  -1.3093  -1.3093  -1.3093  -1.3093   2.9570
     2.9570   2.9570   2.9570   2.9658   2.9658   4.6563   4.6563   4.6563
     4.6563   4.6719   4.6719   4.6719   4.6719   5.9230   5.9300   5.9300
     6.7983   6.8511   6.8511   6.8511   6.8511   6.8849

          k = 0.0341-0.0197 0.0278 (  9417 PWs)   bands (ev):

    -6.5678  -4.1920  -4.1920  -4.1920  -4.1920  -2.5568  -2.2849  -2.2849
    -2.2849  -2.2849  -2.0099  -1.3024  -1.3024  -1.3024  -1.3024   2.9487
     2.9487   2.9487   2.9487   2.9685   2.9685   4.6361   4.6361   4.6361
     4.6362   4.6710   4.6710   4.6710   4.6710   5.9016   5.9173   5.9173
     6.7805   6.8669   6.8669   6.8669   6.8669   6.9105

          k = 0.0455-0.0262 0.0371 (  9437 PWs)   bands (ev):

    -6.5637  -4.1949  -4.1949  -4.1949  -4.1949  -2.6454  -2.2836  -2.2836
    -2.2836  -2.2836  -1.9163  -1.2928  -1.2928  -1.2928  -1.2928   2.9373
     2.9373   2.9373   2.9373   2.9722   2.9722   4.6084   4.6084   4.6084
     4.6084   4.6697   4.6697   4.6697   4.6697   5.8722   5.8998   5.8998
     6.7642   6.8887   6.8887   6.8887   6.8887   6.9377

          k = 0.0568-0.0328 0.0464 (  9437 PWs)   bands (ev):

    -6.5584  -4.1987  -4.1987  -4.1987  -4.1987  -2.7332  -2.2820  -2.2820
    -2.2820  -2.2820  -1.8221  -1.2805  -1.2805  -1.2805  -1.2805   2.9228
     2.9228   2.9228   2.9228   2.9770   2.9770   4.5736   4.5736   4.5736
     4.5736   4.6682   4.6682   4.6682   4.6682   5.8352   5.8777   5.8777
     6.7495   6.9167   6.9167   6.9167   6.9167   6.9665

          k = 0.0682-0.0394 0.0557 (  9453 PWs)   bands (ev):

    -6.5520  -4.2033  -4.2033  -4.2033  -4.2033  -2.8202  -2.2801  -2.2801
    -2.2801  -2.2801  -1.7272  -1.2655  -1.2655  -1.2655  -1.2655   2.9054
     2.9054   2.9054   2.9054   2.9829   2.9829   4.5321   4.5321   4.5321
     4.5321   4.6663   4.6663   4.6663   4.6663   5.7909   5.8514   5.8514
     6.7363   6.9504   6.9504   6.9504   6.9504   6.9969

          k = 0.0795-0.0459 0.0649 (  9437 PWs)   bands (ev):

    -6.5444  -4.2085  -4.2085  -4.2085  -4.2085  -2.9065  -2.2778  -2.2778
    -2.2777  -2.2777  -1.6317  -1.2480  -1.2480  -1.2480  -1.2480   2.8854
     2.8854   2.8854   2.8854   2.9898   2.9898   4.4845   4.4845   4.4845
     4.4845   4.6641   4.6641   4.6641   4.6641   5.7401   5.8211   5.8212
     6.7245   6.9900   6.9900   6.9900   6.9900   7.0289

          k = 0.0909-0.0525 0.0742 (  9445 PWs)   bands (ev):

    -6.5356  -4.2145  -4.2145  -4.2145  -4.2145  -2.9920  -2.2751  -2.2751
    -2.2751  -2.2751  -1.5356  -1.2279  -1.2279  -1.2279  -1.2279   2.8628
     2.8628   2.8628   2.8628   2.9978   2.9978   4.4315   4.4315   4.4315
     4.4315   4.6616   4.6616   4.6616   4.6616   5.6831   5.7872   5.7872
     6.7142   7.0350   7.0350   7.0350   7.0350   7.0624

          k = 0.1023-0.0590 0.0835 (  9453 PWs)   bands (ev):

    -6.5257  -4.2212  -4.2212  -4.2212  -4.2212  -3.0766  -2.2722  -2.2722
    -2.2722  -2.2722  -1.4388  -1.2053  -1.2053  -1.2053  -1.2053   2.8380
     2.8380   2.8380   2.8380   3.0069   3.0069   4.3735   4.3735   4.3735
     4.3735   4.6588   4.6588   4.6588   4.6588   5.6207   5.7501   5.7501
     6.7054   7.0854   7.0854   7.0854   7.0854   7.0976

          k = 0.1136-0.0656 0.0928 (  9453 PWs)   bands (ev):

    -6.5146  -4.2284  -4.2284  -4.2284  -4.2284  -3.1604  -2.2689  -2.2689
    -2.2689  -2.2689  -1.3415  -1.1803  -1.1803  -1.1803  -1.1803   2.8111
     2.8111   2.8111   2.8111   3.0170   3.0170   4.3111   4.3111   4.3111
     4.3111   4.6558   4.6558   4.6558   4.6558   5.5533   5.7100   5.7100
     6.6982   7.1345   7.1408   7.1408   7.1408   7.1408

          k = 0.1250-0.0722 0.1021 (  9477 PWs)   bands (ev):

    -6.5024  -4.2361  -4.2361  -4.2361  -4.2361  -3.2434  -2.2653  -2.2653
    -2.2653  -2.2653  -1.2437  -1.1529  -1.1529  -1.1529  -1.1529   2.7825
     2.7825   2.7825   2.7825   3.0282   3.0282   4.2448   4.2448   4.2448
     4.2448   4.6525   4.6525   4.6525   4.6525   5.4814   5.6673   5.6673
     6.6923   7.1727   7.2010   7.2010   7.2010   7.2010

          k = 0.1364-0.0787 0.1113 (  9465 PWs)   bands (ev):

    -6.4890  -4.2444  -4.2444  -4.2444  -4.2444  -3.3256  -2.2615  -2.2615
    -2.2615  -2.2615  -1.1453  -1.1233  -1.1233  -1.1233  -1.1233   2.7523
     2.7523   2.7523   2.7523   3.0404   3.0404   4.1752   4.1752   4.1752
     4.1752   4.6490   4.6490   4.6490   4.6490   5.4054   5.6223   5.6223
     6.6879   7.2129   7.2659   7.2659   7.2659   7.2659

          k = 0.1477-0.0853 0.1206 (  9465 PWs)   bands (ev):

    -6.4744  -4.2530  -4.2530  -4.2530  -4.2530  -3.4069  -2.2574  -2.2574
    -2.2574  -2.2574  -1.0915  -1.0915  -1.0915  -1.0915  -1.0464   2.7207
     2.7207   2.7207   2.7207   3.0537   3.0537   4.1026   4.1026   4.1026
     4.1026   4.6452   4.6453   4.6453   4.6453   5.3259   5.5753   5.5753
     6.6849   7.2546   7.3352   7.3352   7.3352   7.3352

          k = 0.1591-0.0919 0.1299 (  9465 PWs)   bands (ev):

    -6.4587  -4.2621  -4.2621  -4.2621  -4.2621  -3.4873  -2.2530  -2.2530
    -2.2530  -2.2530  -1.0576  -1.0576  -1.0576  -1.0576  -0.9469   2.6881
     2.6881   2.6881   2.6881   3.0680   3.0680   4.0276   4.0276   4.0276
     4.0276   4.6413   4.6413   4.6413   4.6413   5.2432   5.5265   5.5265
     6.6834   7.2981   7.4086   7.4086   7.4086   7.4086

          k = 0.1705-0.0984 0.1392 (  9457 PWs)   bands (ev):

    -6.4418  -4.2714  -4.2714  -4.2714  -4.2714  -3.5668  -2.2485  -2.2485
    -2.2485  -2.2485  -1.0216  -1.0216  -1.0216  -1.0216  -0.8469   2.6546
     2.6546   2.6546   2.6546   3.0834   3.0834   3.9504   3.9504   3.9504
     3.9504   4.6372   4.6372   4.6372   4.6372   5.1577   5.4763   5.4763
     6.6833   7.3432   7.4860   7.4860   7.4860   7.4860

          k = 0.1818-0.1050 0.1485 (  9473 PWs)   bands (ev):

    -6.4237  -4.2810  -4.2810  -4.2810  -4.2810  -3.6455  -2.2437  -2.2437
    -2.2437  -2.2437  -0.9838  -0.9838  -0.9838  -0.9838  -0.7465   2.6204
     2.6204   2.6204   2.6204   3.0999   3.0999   3.8715   3.8715   3.8715
     3.8715   4.6330   4.6330   4.6330   4.6330   5.0696   5.4248   5.4248
     6.6846   7.3900   7.5670   7.5670   7.5670   7.5670

          k = 0.1932-0.1115 0.1577 (  9473 PWs)   bands (ev):

    -6.4045  -4.2908  -4.2908  -4.2908  -4.2908  -3.7233  -2.2387  -2.2387
    -2.2387  -2.2387  -0.9441  -0.9441  -0.9441  -0.9441  -0.6456   2.5858
     2.5858   2.5858   2.5858   3.1174   3.1174   3.7911   3.7911   3.7911
     3.7911   4.6286   4.6286   4.6286   4.6286   4.9793   5.3723   5.3723
     6.6873   7.4385   7.6517   7.6517   7.6517   7.6517

          k = 0.2045-0.1181 0.1670 (  9465 PWs)   bands (ev):

    -6.3841  -4.3007  -4.3007  -4.3007  -4.3007  -3.8001  -2.2336  -2.2336
    -2.2336  -2.2336  -0.9027  -0.9027  -0.9027  -0.9027  -0.5442   2.5509
     2.5509   2.5509   2.5509   3.1359   3.1359   3.7095   3.7095   3.7095
     3.7095   4.6242   4.6242   4.6242   4.6242   4.8871   5.3190   5.3190
     6.6914   7.4886   7.7397   7.7397   7.7397   7.7397

          k = 0.2159-0.1247 0.1763 (  9449 PWs)   bands (ev):

    -6.3626  -4.3107  -4.3107  -4.3107  -4.3107  -3.8761  -2.2283  -2.2283
    -2.2283  -2.2283  -0.8597  -0.8597  -0.8597  -0.8597  -0.4423   2.5159
     2.5159   2.5159   2.5159   3.1555   3.1555   3.6271   3.6271   3.6271
     3.6271   4.6197   4.6197   4.6197   4.6197   4.7931   5.2650   5.2650
     6.6968   7.5404   7.8310   7.8310   7.8310   7.8310

          k = 0.2273-0.1312 0.1856 (  9445 PWs)   bands (ev):

    -6.3399  -4.3207  -4.3207  -4.3207  -4.3207  -3.9511  -2.2230  -2.2230
    -2.2229  -2.2229  -0.8152  -0.8152  -0.8152  -0.8152  -0.3401   2.4810
     2.4810   2.4810   2.4810   3.1761   3.1761   3.5440   3.5440   3.5440
     3.5440   4.6151   4.6151   4.6151   4.6151   4.6975   5.2105   5.2105
     6.7035   7.5939   7.9254   7.9254   7.9254   7.9254

          k = 0.2386-0.1378 0.1948 (  9453 PWs)   bands (ev):

    -6.3161  -4.3307  -4.3307  -4.3307  -4.3307  -4.0252  -2.2175  -2.2175
    -2.2175  -2.2175  -0.7693  -0.7693  -0.7693  -0.7693  -0.2374   2.4464
     2.4464   2.4464   2.4464   3.1978   3.1978   3.4606   3.4606   3.4606
     3.4606   4.6005   4.6105   4.6105   4.6105   4.6105   5.1555   5.1555
     6.7116   7.6490   8.0225   8.0225   8.0225   8.0225

          k = 0.2500-0.1443 0.2041 (  9453 PWs)   bands (ev):

    -6.2911  -4.3406  -4.3406  -4.3406  -4.3406  -4.0983  -2.2120  -2.2120
    -2.2119  -2.2119  -0.7222  -0.7222  -0.7222  -0.7222  -0.1344   2.4121
     2.4121   2.4121   2.4121   3.2205   3.2205   3.3770   3.3770   3.3770
     3.3770   4.5022   4.6059   4.6059   4.6059   4.6059   5.1004   5.1004
     6.7211   7.7058   8.1068   8.1224   8.1224   8.1224

          k = 0.2614-0.1509 0.2134 (  9453 PWs)   bands (ev):

    -6.2650  -4.3503  -4.3503  -4.3503  -4.3503  -4.1705  -2.2064  -2.2064
    -2.2064  -2.2064  -0.6739  -0.6739  -0.6739  -0.6739  -0.0310   2.3785
     2.3785   2.3785   2.3785   3.2442   3.2442   3.2934   3.2934   3.2934
     3.2934   4.4029   4.6014   4.6014   4.6014   4.6014   5.0451   5.0451
     6.7318   7.7642   8.0661   8.2248   8.2248   8.2248

          k = 0.2727-0.1575 0.2227 (  9437 PWs)   bands (ev):

    -6.2377  -4.3599  -4.3599  -4.3599  -4.3599  -4.2418  -2.2008  -2.2008
    -2.2008  -2.2008  -0.6246  -0.6246  -0.6246  -0.6246   0.0728   2.3456
     2.3456   2.3456   2.3456   3.2101   3.2101   3.2101   3.2102   3.2689
     3.2689   4.3026   4.5969   4.5969   4.5969   4.5969   4.9898   4.9898
     6.7438   7.8243   8.0249   8.3298   8.3298   8.3298

          k = 0.2841-0.1640 0.2320 (  9437 PWs)   bands (ev):

    -6.2093  -4.3693  -4.3693  -4.3693  -4.3693  -4.3121  -2.1953  -2.1953
    -2.1953  -2.1953  -0.5744  -0.5744  -0.5744  -0.5744   0.1769   2.3134
     2.3134   2.3134   2.3134   3.1274   3.1274   3.1274   3.1274   3.2947
     3.2947   4.2014   4.5924   4.5924   4.5924   4.5924   4.9345   4.9345
     6.7571   7.8860   7.9834   8.4371   8.4371   8.4371

          k = 0.2955-0.1706 0.2412 (  9425 PWs)   bands (ev):

    -6.1797  -4.3813  -4.3785  -4.3785  -4.3785  -4.3785  -2.1898  -2.1898
    -2.1898  -2.1898  -0.5236  -0.5236  -0.5236  -0.5236   0.2813   2.2823
     2.2823   2.2823   2.2823   3.0454   3.0454   3.0454   3.0454   3.3214
     3.3214   4.0994   4.5880   4.5880   4.5880   4.5880   4.8794   4.8794
     6.7716   7.9416   7.9494   8.5270   8.5270   8.5270

          k = 0.3068-0.1771 0.2505 (  9445 PWs)   bands (ev):

    -6.1490  -4.4497  -4.3873  -4.3873  -4.3873  -4.3873  -2.1844  -2.1843
    -2.1843  -2.1843  -0.4723  -0.4723  -0.4723  -0.4723   0.3860   2.2522
     2.2522   2.2522   2.2522   2.9643   2.9643   2.9643   2.9643   3.3492
     3.3492   3.9967   4.5837   4.5837   4.5837   4.5837   4.8244   4.8244
     6.7874   7.8997   8.0143   8.5404   8.5404   8.5404

          k = 0.3182-0.1837 0.2598 (  9437 PWs)   bands (ev):

    -6.1172  -4.5170  -4.3958  -4.3958  -4.3958  -4.3958  -2.1790  -2.1790
    -2.1790  -2.1790  -0.4206  -0.4206  -0.4206  -0.4206   0.4910   2.2232
     2.2232   2.2232   2.2232   2.8844   2.8844   2.8844   2.8844   3.3780
     3.3780   3.8934   4.5796   4.5796   4.5796   4.5796   4.7697   4.7697
     6.8045   7.8576   8.0811   8.5511   8.5511   8.5511

          k = 0.3295-0.1903 0.2691 (  9421 PWs)   bands (ev):

    -6.0842  -4.5834  -4.4040  -4.4040  -4.4040  -4.4040  -2.1739  -2.1739
    -2.1739  -2.1739  -0.3688  -0.3688  -0.3688  -0.3688   0.5963   2.1956
     2.1956   2.1956   2.1956   2.8060   2.8060   2.8060   2.8060   3.4078
     3.4078   3.7895   4.5757   4.5757   4.5757   4.5757   4.7154   4.7154
     6.8229   7.8156   8.1492   8.5596   8.5596   8.5596

          k = 0.3409-0.1968 0.2784 (  9421 PWs)   bands (ev):

    -6.0501  -4.6487  -4.4118  -4.4118  -4.4118  -4.4118  -2.1689  -2.1689
    -2.1689  -2.1689  -0.3172  -0.3172  -0.3172  -0.3172   0.7018   2.1693
     2.1693   2.1693   2.1693   2.7294   2.7294   2.7294   2.7294   3.4386
     3.4386   3.6852   4.5719   4.5719   4.5719   4.5719   4.6614   4.6614
     6.8424   7.7736   8.2189   8.5661   8.5661   8.5661

          k = 0.3523-0.2034 0.2876 (  9421 PWs)   bands (ev):

    -6.0149  -4.7131  -4.4191  -4.4191  -4.4191  -4.4191  -2.1641  -2.1641
    -2.1641  -2.1641  -0.2661  -0.2661  -0.2661  -0.2661   0.8076   2.1444
     2.1444   2.1444   2.1444   2.6547   2.6547   2.6547   2.6547   3.4703
     3.4703   3.5804   4.5682   4.5682   4.5682   4.5682   4.6080   4.6080
     6.8630   7.7318   8.2901   8.5709   8.5709   8.5709

          k = 0.3636-0.2099 0.2969 (  9409 PWs)   bands (ev):

    -5.9785  -4.7764  -4.4260  -4.4260  -4.4260  -4.4260  -2.1595  -2.1595
    -2.1595  -2.1595  -0.2156  -0.2156  -0.2156  -0.2156   0.9135   2.1211
     2.1211   2.1211   2.1211   2.5825   2.5825   2.5825   2.5825   3.4752
     3.5031   3.5031   4.5550   4.5550   4.5648   4.5648   4.5648   4.5648
     6.8848   7.6903   8.3628   8.5745   8.5745   8.5745

          k = 0.3750-0.2165 0.3062 (  9429 PWs)   bands (ev):

    -5.9410  -4.8387  -4.4325  -4.4325  -4.4325  -4.4325  -2.1552  -2.1552
    -2.1552  -2.1552  -0.1662  -0.1662  -0.1662  -0.1662   1.0197   2.0993
     2.0993   2.0993   2.0993   2.5130   2.5130   2.5130   2.5130   3.3697
     3.5368   3.5368   4.5025   4.5025   4.5616   4.5616   4.5616   4.5616
     6.9076   7.6490   8.4370   8.5769   8.5769   8.5769

          k = 0.3864-0.2231 0.3155 (  9425 PWs)   bands (ev):

    -5.9024  -4.9000  -4.4384  -4.4384  -4.4384  -4.4384  -2.1511  -2.1511
    -2.1511  -2.1511  -0.1183  -0.1183  -0.1183  -0.1183   1.1261   2.0793
     2.0793   2.0793   2.0793   2.4467   2.4467   2.4467   2.4467   3.2639
     3.5715   3.5715   4.4505   4.4505   4.5586   4.5586   4.5586   4.5586
     6.9317   7.6080   8.5126   8.5785   8.5785   8.5785

          k = 0.3977-0.2296 0.3247 (  9429 PWs)   bands (ev):

    -5.8626  -4.9603  -4.4439  -4.4439  -4.4439  -4.4438  -2.1474  -2.1474
    -2.1474  -2.1474  -0.0724  -0.0724  -0.0724  -0.0724   1.2326   2.0609
     2.0609   2.0609   2.0609   2.3840   2.3840   2.3840   2.3840   3.1578
     3.6071   3.6071   4.3992   4.3992   4.5559   4.5559   4.5559   4.5559
     6.9569   7.5674   8.5794   8.5794   8.5794   8.5794

          k = 0.4091-0.2362 0.3340 (  9428 PWs)   bands (ev):

    -5.8218  -5.0195  -4.4488  -4.4488  -4.4488  -4.4488  -2.1440  -2.1440
    -2.1440  -2.1440  -0.0288  -0.0288  -0.0288  -0.0288   1.3393   2.0443
     2.0443   2.0443   2.0443   2.3255   2.3255   2.3255   2.3255   3.0514
     3.6437   3.6437   4.3486   4.3486   4.5534   4.5534   4.5534   4.5534
     6.9831   7.5273   8.5799   8.5799   8.5799   8.5799

          k = 0.4205-0.2427 0.3433 (  9432 PWs)   bands (ev):

    -5.7798  -5.0777  -4.4531  -4.4531  -4.4531  -4.4531  -2.1409  -2.1409
    -2.1409  -2.1409   0.0118   0.0118   0.0118   0.0118   1.4461   2.0296
     2.0296   2.0296   2.0296   2.2716   2.2716   2.2716   2.2716   2.9449
     3.6813   3.6813   4.2986   4.2986   4.5512   4.5512   4.5512   4.5512
     7.0104   7.4877   8.5800   8.5800   8.5800   8.5800

          k = 0.4318-0.2493 0.3526 (  9448 PWs)   bands (ev):

    -5.7368  -5.1348  -4.4569  -4.4569  -4.4569  -4.4569  -2.1382  -2.1382
    -2.1382  -2.1382   0.0488   0.0488   0.0488   0.0488   1.5530   2.0167
     2.0167   2.0167   2.0167   2.2231   2.2231   2.2231   2.2231   2.8382
     3.7197   3.7197   4.2492   4.2492   4.5493   4.5493   4.5493   4.5493
     7.0387   7.4487   8.5799   8.5799   8.5799   8.5799

          k = 0.4432-0.2559 0.3619 (  9440 PWs)   bands (ev):

    -5.6926  -5.1909  -4.4602  -4.4602  -4.4602  -4.4602  -2.1359  -2.1359
    -2.1359  -2.1359   0.0816   0.0816   0.0816   0.0816   1.6600   2.0058
     2.0058   2.0058   2.0058   2.1805   2.1805   2.1805   2.1805   2.7314
     3.7591   3.7591   4.2007   4.2007   4.5476   4.5476   4.5476   4.5476
     7.0680   7.4103   8.5796   8.5796   8.5796   8.5796

          k = 0.4545-0.2624 0.3711 (  9448 PWs)   bands (ev):

    -5.6473  -5.2459  -4.4629  -4.4629  -4.4629  -4.4629  -2.1340  -2.1340
    -2.1340  -2.1340   0.1096   0.1096   0.1096   0.1096   1.7671   1.9968
     1.9968   1.9968   1.9968   2.1446   2.1446   2.1446   2.1446   2.6244
     3.7994   3.7994   4.1528   4.1528   4.5462   4.5462   4.5462   4.5462
     7.0983   7.3725   8.5793   8.5793   8.5793   8.5793

          k = 0.4659-0.2690 0.3804 (  9456 PWs)   bands (ev):

    -5.6009  -5.2998  -4.4650  -4.4650  -4.4650  -4.4650  -2.1325  -2.1325
    -2.1325  -2.1325   0.1321   0.1321   0.1321   0.1321   1.8742   1.9897
     1.9897   1.9897   1.9897   2.1158   2.1158   2.1158   2.1158   2.5173
     3.8406   3.8406   4.1058   4.1058   4.5452   4.5452   4.5452   4.5452
     7.1295   7.3354   8.5790   8.5790   8.5790   8.5790

          k = 0.4773-0.2756 0.3897 (  9440 PWs)   bands (ev):

    -5.5535  -5.3527  -4.4664  -4.4664  -4.4664  -4.4664  -2.1314  -2.1314
    -2.1314  -2.1314   0.1487   0.1487   0.1487   0.1487   1.9814   1.9847
     1.9847   1.9847   1.9847   2.0948   2.0948   2.0948   2.0948   2.4102
     3.8826   3.8826   4.0595   4.0595   4.5444   4.5444   4.5444   4.5444
     7.1617   7.2991   8.5787   8.5787   8.5787   8.5787

          k = 0.4886-0.2821 0.3990 (  9424 PWs)   bands (ev):

    -5.5049  -5.4045  -4.4673  -4.4673  -4.4673  -4.4673  -2.1308  -2.1308
    -2.1308  -2.1308   0.1588   0.1588   0.1588   0.1588   1.9817   1.9817
     1.9817   1.9817   2.0820   2.0820   2.0820   2.0820   2.0885   2.3030
     3.9256   3.9256   4.0140   4.0140   4.5440   4.5440   4.5440   4.5440
     7.1947   7.2635   8.5786   8.5786   8.5786   8.5786

          k = 0.5000-0.2887 0.4082 (  9432 PWs)   bands (ev):

    -5.4553  -5.4553  -4.4676  -4.4676  -4.4676  -4.4676  -2.1305  -2.1305
    -2.1305  -2.1305   0.1622   0.1622   0.1622   0.1622   1.9807   1.9807
     1.9807   1.9807   2.0777   2.0777   2.0777   2.0777   2.1958   2.1958
     3.9694   3.9694   3.9694   3.9694   4.5438   4.5438   4.5438   4.5438
     7.2286   7.2286   8.5786   8.5786   8.5786   8.5786

          k = 0.5083-0.2742 0.4082 (  9418 PWs)   bands (ev):

    -5.4547  -5.4547  -4.5305  -4.4670  -4.4670  -4.4044  -2.1873  -2.1873
    -2.0740  -2.0740   0.0823   0.1619   0.1619   0.2433   1.9403   1.9403
     2.0232   2.0232   2.0232   2.0782   2.0782   2.1338   2.1934   2.1934
     3.9681   3.9681   3.9697   3.9698   4.5009   4.5398   4.5398   4.5868
     7.2325   7.2325   8.5360   8.5846   8.5846   8.6204

          k = 0.5167-0.2598 0.4082 (  9438 PWs)   bands (ev):

    -5.4530  -5.4530  -4.5929  -4.4651  -4.4651  -4.3407  -2.2443  -2.2443
    -2.0179  -2.0179   0.0037   0.1608   0.1608   0.3256   1.9023   1.9023
     1.9707   2.0677   2.0677   2.0796   2.0796   2.1859   2.1859   2.1916
     3.9642   3.9642   3.9709   3.9709   4.4579   4.5278   4.5278   4.6297
     7.2440   7.2440   8.4928   8.6025   8.6025   8.6614

          k = 0.5250-0.2454 0.4082 (  9442 PWs)   bands (ev):

    -5.4501  -5.4501  -4.6548  -4.4619  -4.4619  -4.2768  -2.3014  -2.3014
    -1.9624  -1.9624  -0.0736   0.1592   0.1592   0.4092   1.8668   1.8668
     1.9199   2.0820   2.0820   2.1142   2.1142   2.1734   2.1734   2.2509
     3.9580   3.9580   3.9728   3.9728   4.4150   4.5082   4.5082   4.6724
     7.2629   7.2629   8.4490   8.6321   8.6321   8.7013

          k = 0.5333-0.2309 0.4082 (  9446 PWs)   bands (ev):

    -5.4461  -5.4461  -4.7161  -4.4574  -4.4574  -4.2127  -2.3584  -2.3584
    -1.9076  -1.9076  -0.1497   0.1567   0.1568   0.4941   1.8340   1.8340
     1.8710   2.0854   2.0854   2.1559   2.1559   2.1624   2.1624   2.3118
     3.9497   3.9497   3.9755   3.9755   4.3722   4.4813   4.4813   4.7150
     7.2888   7.2888   8.4048   8.6730   8.6730   8.7400

          k = 0.5417-0.2165 0.4082 (  9458 PWs)   bands (ev):

    -5.4410  -5.4410  -4.7768  -4.4516  -4.4516  -4.1483  -2.4153  -2.4153
    -1.8536  -1.8536  -0.2245   0.1536   0.1536   0.5802   1.8039   1.8039
     1.8240   2.0896   2.0896   2.1335   2.1335   2.2123   2.2123   2.3742
     3.9398   3.9398   3.9790   3.9790   4.3295   4.4475   4.4475   4.7575
     7.3211   7.3211   8.3602   8.7247   8.7247   8.7775

          k = 0.5500-0.2021 0.4082 (  9448 PWs)   bands (ev):

    -5.4348  -5.4348  -4.8369  -4.4446  -4.4446  -4.0839  -2.4719  -2.4719
    -1.8006  -1.8006  -0.2980   0.1497   0.1497   0.6674   1.7768   1.7769
     1.7791   2.0949   2.0949   2.1059   2.1059   2.2638   2.2638   2.4380
     3.9288   3.9288   3.9832   3.9832   4.2871   4.4076   4.4076   4.7996
     7.3592   7.3592   8.3154   8.7867   8.7867   8.8136

          k = 0.5583-0.1876 0.4082 (  9446 PWs)   bands (ev):

    -5.4274  -5.4274  -4.8963  -4.4362  -4.4362  -4.0194  -2.5283  -2.5283
    -1.7488  -1.7488  -0.3702   0.1450   0.1450   0.7559   1.7364   1.7529
     1.7529   2.0735   2.0735   2.1010   2.1010   2.3166   2.3166   2.5032
     3.9170   3.9170   3.9882   3.9882   4.2448   4.3622   4.3622   4.8415
     7.4024   7.4024   8.2705   8.8483   8.8583   8.8583

          k = 0.5667-0.1732 0.4082 (  9438 PWs)   bands (ev):

    -5.4189  -5.4189  -4.9550  -4.4266  -4.4266  -3.9549  -2.5843  -2.5843
    -1.6983  -1.6983  -0.4411   0.1395   0.1395   0.8457   1.6958   1.7324
     1.7324   2.0360   2.0360   2.1082   2.1082   2.3708   2.3708   2.5697
     3.9051   3.9051   3.9939   3.9939   4.2028   4.3119   4.3119   4.8830
     7.4499   7.4499   8.2255   8.8812   8.9389   8.9389

          k = 0.5750-0.1588 0.4082 (  9432 PWs)   bands (ev):

    -5.4093  -5.4093  -5.0129  -4.4157  -4.4157  -3.8906  -2.6399  -2.6399
    -1.6494  -1.6494  -0.5107   0.1330   0.1330   0.9366   1.6574   1.7153
     1.7153   1.9938   1.9938   2.1162   2.1162   2.4262   2.4262   2.6375
     3.8934   3.8934   4.0003   4.0003   4.1612   4.2575   4.2575   4.9241
     7.5009   7.5009   8.1805   8.9123   9.0277   9.0277

          k = 0.5833-0.1443 0.4082 (  9446 PWs)   bands (ev):

    -5.3986  -5.3986  -5.0701  -4.4036  -4.4036  -3.8264  -2.6949  -2.6949
    -1.6021  -1.6021  -0.5791   0.1255   0.1255   1.0287   1.6214   1.7020
     1.7020   1.9468   1.9468   2.1251   2.1251   2.4827   2.4827   2.7065
     3.8824   3.8824   4.0075   4.0075   4.1198   4.1997   4.1997   4.9648
     7.5545   7.5545   8.1355   8.9416   9.1242   9.1242

          k = 0.5917-0.1299 0.4082 (  9438 PWs)   bands (ev):

    -5.3867  -5.3867  -5.1265  -4.3902  -4.3902  -3.7625  -2.7495  -2.7495
    -1.5567  -1.5567  -0.6461   0.1170   0.1170   1.1219   1.5879   1.6926
     1.6926   1.8952   1.8952   2.1350   2.1350   2.5402   2.5402   2.7767
     3.8726   3.8726   4.0154   4.0154   4.0788   4.1391   4.1391   5.0050
     7.6100   7.6100   8.0908   8.9689   9.2278   9.2278

          k = 0.6000-0.1155 0.4082 (  9446 PWs)   bands (ev):

    -5.3738  -5.3738  -5.1820  -4.3755  -4.3755  -3.6991  -2.8034  -2.8034
    -1.5134  -1.5134  -0.7119   0.1074   0.1074   1.2164   1.5568   1.6873
     1.6873   1.8392   1.8392   2.1457   2.1457   2.5986   2.5986   2.8480
     3.8641   3.8641   4.0240   4.0240   4.0382   4.0764   4.0764   5.0447
     7.6665   7.6665   8.0463   8.9943   9.3378   9.3378

          k = 0.6083-0.1010 0.4082 (  9438 PWs)   bands (ev):

    -5.3598  -5.3598  -5.2367  -4.3595  -4.3595  -3.6360  -2.8566  -2.8566
    -1.4722  -1.4722  -0.7763   0.0965   0.0965   1.3120   1.5283   1.6862
     1.6862   1.7791   1.7791   2.1573   2.1573   2.6579   2.6579   2.9203
     3.8573   3.8573   3.9981   4.0122   4.0122   4.0333   4.0333   5.0838
     7.7233   7.7233   8.0021   9.0174   9.4537   9.4537

          k = 0.6167-0.0866 0.4082 (  9448 PWs)   bands (ev):

    -5.3447  -5.3447  -5.2905  -4.3422  -4.3422  -3.5736  -2.9092  -2.9092
    -1.4334  -1.4334  -0.8394   0.0843   0.0843   1.4087   1.5025   1.6894
     1.6894   1.7151   1.7151   2.1698   2.1698   2.7178   2.7178   2.9937
     3.8523   3.8523   3.9470   3.9470   3.9584   4.0433   4.0433   5.1223
     7.7798   7.7798   7.9582   9.0383   9.5748   9.5748

          k = 0.6250-0.0722 0.4082 (  9472 PWs)   bands (ev):

    -5.3433  -5.3285  -5.3285  -4.3237  -4.3237  -3.5118  -2.9610  -2.9610
    -1.3971  -1.3971  -0.9012   0.0707   0.0707   1.4795   1.5066   1.6475
     1.6475   1.6972   1.6973   2.1831   2.1831   2.7784   2.7784   3.0680
     3.8492   3.8492   3.8813   3.8813   3.9192   4.0539   4.0539   5.1601
     7.8354   7.8354   7.9147   9.0568   9.5243   9.5243

          k = 0.3750 0.2165 0.6124 (  9472 PWs)   bands (ev):

    -5.3433  -5.3285  -5.3285  -4.3237  -4.3237  -3.5118  -2.9610  -2.9610
    -1.3971  -1.3971  -0.9012   0.0707   0.0707   1.4795   1.5066   1.6475
     1.6475   1.6972   1.6973   2.1831   2.1831   2.7784   2.7784   3.0680
     3.8492   3.8492   3.8813   3.8813   3.9192   4.0539   4.0539   5.1601
     7.8353   7.8354   7.9147   9.0568   9.5243   9.5243

          k = 0.3670 0.2119 0.5993 (  9452 PWs)   bands (ev):

    -5.3931  -5.3121  -5.3121  -4.3048  -4.3048  -3.4534  -3.0098  -3.0098
    -1.3648  -1.3648  -0.9592   0.0563   0.0563   1.4602   1.5798   1.5798
     1.6013   1.7091   1.7091   2.1966   2.1966   2.8369   2.8369   3.1401
     3.8185   3.8185   3.8481   3.8481   3.8821   4.0648   4.0648   5.1956
     7.8735   7.8872   7.8872   9.0726   9.4241   9.4241

          k = 0.3590 0.2073 0.5863 (  9444 PWs)   bands (ev):

    -5.4420  -5.2946  -5.2946  -4.2848  -4.2848  -3.3957  -3.0579  -3.0579
    -1.3349  -1.3349  -1.0159   0.0404   0.0404   1.4435   1.5092   1.5092
     1.6971   1.7252   1.7252   2.2109   2.2109   2.8958   2.8958   3.2129
     3.7561   3.7561   3.8456   3.8489   3.8489   4.0762   4.0762   5.2304
     7.8328   7.9374   7.9374   9.0863   9.3246   9.3246

          k = 0.3511 0.2027 0.5733 (  9451 PWs)   bands (ev):

    -5.4900  -5.2763  -5.2763  -4.2636  -4.2636  -3.3390  -3.1053  -3.1053
    -1.3075  -1.3075  -1.0714   0.0229   0.0229   1.4297   1.4362   1.4362
     1.7457   1.7457   1.7939   2.2259   2.2259   2.9551   2.9551   3.2864
     3.6944   3.6944   3.8095   3.8515   3.8515   4.0881   4.0881   5.2646
     7.7924   7.9854   7.9854   9.0980   9.2261   9.2261

          k = 0.3431 0.1981 0.5603 (  9451 PWs)   bands (ev):

    -5.5371  -5.2570  -5.2570  -4.2412  -4.2412  -3.2833  -3.1518  -3.1518
    -1.2827  -1.2827  -1.1257   0.0039   0.0039   1.3611   1.3611   1.4186
     1.7707   1.7707   1.8916   2.2416   2.2416   3.0145   3.0145   3.3607
     3.6339   3.6339   3.7740   3.8560   3.8560   4.1006   4.1006   5.2980
     7.7527   8.0313   8.0313   9.1076   9.1285   9.1285

          k = 0.3351 0.1935 0.5472 (  9455 PWs)   bands (ev):

    -5.5833  -5.2368  -5.2368  -4.2177  -4.2177  -3.2286  -3.1975  -3.1975
    -1.2604  -1.2604  -1.1788  -0.0170  -0.0170   1.2839   1.2840   1.4106
     1.8000   1.8000   1.9903   2.2580   2.2580   3.0742   3.0742   3.4356
     3.5747   3.5747   3.7391   3.8622   3.8622   4.1137   4.1137   5.3305
     7.7136   8.0747   8.0747   9.0319   9.0319   9.1153

          k = 0.3271 0.1889 0.5342 (  9455 PWs)   bands (ev):

    -5.6285  -5.2156  -5.2156  -4.1931  -4.1931  -3.2423  -3.2423  -3.1751
    -1.2407  -1.2407  -1.2306  -0.0396  -0.0396   1.2052   1.2052   1.4055
     1.8337   1.8337   2.0900   2.2751   2.2751   3.1339   3.1339   3.5111
     3.5173   3.5173   3.7048   3.8702   3.8702   4.1272   4.1272   5.3623
     7.6751   8.1155   8.1155   8.9363   8.9363   9.1211

          k = 0.3191 0.1843 0.5212 (  9467 PWs)   bands (ev):

    -5.6728  -5.1936  -5.1936  -4.1673  -4.1673  -3.2863  -3.2863  -3.1229
    -1.2813  -1.2234  -1.2234  -0.0641  -0.0641   1.1250   1.1250   1.4036
     1.8717   1.8717   2.1907   2.2928   2.2928   3.1936   3.1936   3.4617
     3.4617   3.5871   3.6710   3.8799   3.8799   4.1412   4.1412   5.3933
     7.6372   8.1536   8.1536   8.8419   8.8419   9.1250

          k = 0.3112 0.1797 0.5081 (  9459 PWs)   bands (ev):

    -5.7161  -5.1708  -5.1708  -4.1404  -4.1404  -3.3293  -3.3293  -3.0720
    -1.3307  -1.2086  -1.2086  -0.0906  -0.0906   1.0436   1.0436   1.4048
     1.9139   1.9139   2.2922   2.3111   2.3111   3.2532   3.2532   3.4082
     3.4082   3.6379   3.6636   3.8912   3.8912   4.1557   4.1557   5.4234
     7.5999   8.1890   8.1890   8.7487   8.7487   9.1272

          k = 0.3032 0.1750 0.4951 (  9445 PWs)   bands (ev):

    -5.7585  -5.1471  -5.1470  -4.1123  -4.1123  -3.3715  -3.3715  -3.0225
    -1.3788  -1.1961  -1.1961  -0.1192  -0.1191   0.9612   0.9612   1.4092
     1.9603   1.9603   2.3300   2.3300   2.3946   3.3126   3.3126   3.3571
     3.3571   3.6055   3.7405   3.9040   3.9040   4.1706   4.1706   5.4527
     7.5635   8.2216   8.2216   8.6567   8.6567   9.1278

          k = 0.2952 0.1704 0.4821 (  9447 PWs)   bands (ev):

    -5.7999  -5.1225  -5.1225  -4.0831  -4.0831  -3.4127  -3.4127  -2.9746
    -1.4258  -1.1858  -1.1858  -0.1498  -0.1498   0.8781   0.8781   1.4169
     2.0107   2.0107   2.3495   2.3495   2.4979   3.3084   3.3084   3.3718
     3.3718   3.5737   3.8177   3.9182   3.9182   4.1859   4.1860   5.4810
     7.5277   8.2512   8.2512   8.5660   8.5660   9.1268

          k = 0.2872 0.1658 0.4691 (  9435 PWs)   bands (ev):

    -5.8402  -5.0972  -5.0972  -4.0528  -4.0528  -3.4529  -3.4529  -2.9283
    -1.4715  -1.1777  -1.1777  -0.1825  -0.1825   0.7944   0.7944   1.4278
     2.0649   2.0649   2.3694   2.3694   2.6021   3.2624   3.2624   3.4306
     3.4306   3.5426   3.8953   3.9339   3.9339   4.2017   4.2017   5.5085
     7.4926   8.2777   8.2777   8.4767   8.4767   9.1243

          k = 0.2793 0.1612 0.4560 (  9429 PWs)   bands (ev):

    -5.8796  -5.0711  -5.0711  -4.0214  -4.0214  -3.4922  -3.4922  -2.8836
    -1.5160  -1.1715  -1.1715  -0.2174  -0.2174   0.7103   0.7103   1.4421
     2.1229   2.1229   2.3899   2.3899   2.7071   3.2191   3.2191   3.4890
     3.4890   3.5121   3.9509   3.9509   3.9731   4.2178   4.2178   5.5351
     7.4582   8.3011   8.3011   8.3888   8.3888   9.1207

          k = 0.2713 0.1566 0.4430 (  9429 PWs)   bands (ev):

    -5.9180  -5.0442  -5.0442  -3.9889  -3.9889  -3.5305  -3.5305  -2.8406
    -1.5592  -1.1672  -1.1672  -0.2544  -0.2544   0.6261   0.6261   1.4597
     2.1844   2.1844   2.4108   2.4108   2.8129   3.1786   3.1786   3.4824
     3.5468   3.5468   3.9691   3.9691   4.0510   4.2342   4.2342   5.5607
     7.4247   8.3024   8.3024   8.3212   8.3212   9.1073

          k = 0.2633 0.1520 0.4300 (  9435 PWs)   bands (ev):

    -5.9553  -5.0166  -5.0166  -3.9552  -3.9552  -3.5678  -3.5678  -2.7994
    -1.6013  -1.1645  -1.1645  -0.2936  -0.2936   0.5418   0.5418   1.4807
     2.2493   2.2493   2.4321   2.4321   2.9194   3.1409   3.1409   3.4534
     3.6040   3.6040   3.9884   3.9884   4.1290   4.2509   4.2509   5.5854
     7.3917   8.2176   8.2176   8.3377   8.3377   9.0043

          k = 0.2553 0.1474 0.4169 (  9437 PWs)   bands (ev):

    -5.9916  -4.9884  -4.9884  -3.9205  -3.9205  -3.6041  -3.6041  -2.7601
    -1.6421  -1.1635  -1.1635  -0.3350  -0.3350   0.4576   0.4576   1.5051
     2.3174   2.3174   2.4538   2.4538   3.0266   3.1062   3.1062   3.4251
     3.6606   3.6606   4.0089   4.0089   4.2071   4.2679   4.2679   5.6092
     7.3598   8.1344   8.1344   8.3506   8.3506   8.9027

          k = 0.2473 0.1428 0.4039 (  9425 PWs)   bands (ev):

    -6.0269  -4.9595  -4.9595  -3.8847  -3.8847  -3.6394  -3.6394  -2.7225
    -1.6816  -1.1638  -1.1638  -0.3784  -0.3784   0.3738   0.3738   1.5327
     2.3885   2.3885   2.4757   2.4757   3.0744   3.0744   3.1345   3.3976
     3.7163   3.7163   4.0303   4.0303   4.2850   4.2851   4.2851   5.6320
     7.3287   8.0529   8.0529   8.3594   8.3594   8.8028

          k = 0.2394 0.1382 0.3909 (  9431 PWs)   bands (ev):

    -6.0611  -4.9300  -4.9300  -3.8478  -3.8478  -3.6736  -3.6736  -2.6868
    -1.7199  -1.1653  -1.1653  -0.4240  -0.4240   0.2903   0.2903   1.5637
     2.4624   2.4624   2.4980   2.4980   3.0455   3.0455   3.2431   3.3708
     3.7711   3.7711   4.0527   4.0527   4.3024   4.3024   4.3629   5.6539
     7.2985   7.9731   7.9731   8.3637   8.3637   8.7045

          k = 0.2314 0.1336 0.3778 (  9431 PWs)   bands (ev):

    -6.0942  -4.8999  -4.8999  -3.8097  -3.8097  -3.7068  -3.7068  -2.6530
    -1.7569  -1.1680  -1.1680  -0.4715  -0.4715   0.2074   0.2074   1.5978
     2.5205   2.5205   2.5389   2.5390   3.0194   3.0194   3.3448   3.3523
     3.8250   3.8250   4.0759   4.0759   4.3199   4.3199   4.4404   5.6749
     7.2691   7.8952   7.8952   8.3634   8.3634   8.6079

          k = 0.2234 0.1290 0.3648 (  9423 PWs)   bands (ev):

    -6.1263  -4.8694  -4.8694  -3.7707  -3.7707  -3.7390  -3.7390  -2.6211
    -1.7928  -1.1717  -1.1717  -0.5210  -0.5210   0.1252   0.1252   1.6352
     2.5432   2.5432   2.6180   2.6180   2.9962   2.9962   3.3196   3.4620
     3.8779   3.8779   4.1000   4.1000   4.3376   4.3376   4.5176   5.6949
     7.2406   7.8193   7.8193   8.3584   8.3584   8.5131

          k = 0.2154 0.1244 0.3518 (  9427 PWs)   bands (ev):

    -6.1573  -4.8383  -4.8383  -3.7701  -3.7701  -3.7305  -3.7305  -2.5910
    -1.8273  -1.1762  -1.1762  -0.5724  -0.5724   0.0438   0.0438   1.6756
     2.5659   2.5659   2.6992   2.6992   2.9757   2.9757   3.2952   3.5722
     3.9296   3.9296   4.1247   4.1247   4.3553   4.3553   4.5944   5.7140
     7.2130   7.7452   7.7452   8.3483   8.3483   8.4200

          k = 0.2074 0.1198 0.3388 (  9447 PWs)   bands (ev):

    -6.1872  -4.8069  -4.8069  -3.8001  -3.8001  -3.6893  -3.6893  -2.5627
    -1.8607  -1.1814  -1.1814  -0.6255  -0.6255  -0.0367  -0.0367   1.7189
     2.5887   2.5887   2.7824   2.7824   2.9579   2.9579   3.2716   3.6828
     3.9800   3.9800   4.1500   4.1500   4.3730   4.3730   4.6707   5.7322
     7.1863   7.6733   7.6733   8.3289   8.3289   8.3332

          k = 0.1995 0.1152 0.3257 (  9437 PWs)   bands (ev):

    -6.2161  -4.7751  -4.7751  -3.8291  -3.8291  -3.6471  -3.6471  -2.5362
    -1.8927  -1.1873  -1.1873  -0.6803  -0.6803  -0.1160  -0.1160   1.7651
     2.6115   2.6115   2.8676   2.8676   2.9426   2.9426   3.2488   3.7937
     4.0292   4.0292   4.1760   4.1760   4.3907   4.3907   4.7463   5.7495
     7.1604   7.6036   7.6036   8.2396   8.2396   8.3132

          k = 0.1915 0.1106 0.3127 (  9437 PWs)   bands (ev):

    -6.2438  -4.7430  -4.7430  -3.8569  -3.8569  -3.6037  -3.6037  -2.5115
    -1.9235  -1.1936  -1.1936  -0.7367  -0.7367  -0.1941  -0.1941   1.8139
     2.6342   2.6342   2.9298   2.9298   2.9544   2.9544   3.2268   3.9050
     4.0770   4.0770   4.2023   4.2023   4.4083   4.4083   4.8211   5.7659
     7.1358   7.5361   7.5361   8.1524   8.1524   8.2884

          k = 0.1835 0.1059 0.2997 (  9429 PWs)   bands (ev):

    -6.2705  -4.7108  -4.7108  -3.8837  -3.8837  -3.5594  -3.5594  -2.4885
    -1.9531  -1.2003  -1.2003  -0.7945  -0.7945  -0.2709  -0.2709   1.8653
     2.6568   2.6568   2.9193   2.9193   3.0426   3.0426   3.2057   4.0163
     4.1233   4.1233   4.2290   4.2290   4.4258   4.4258   4.8950   5.7815
     7.1119   7.4710   7.4710   8.0672   8.0672   8.2593

[...]

    -5.6782  -5.6781  -4.3342  -4.3342  -3.7150  -3.7150  -3.3217  -3.3217
    -1.2148  -1.2148  -0.7745  -0.7745  -0.0433  -0.0433   1.8216   1.8216
     1.8296   1.8296   2.1940   2.1940   2.7657   2.7657   3.4064   3.4065
     3.5661   3.5661   3.6753   3.6753   4.4854   4.4854   5.1715   5.1715
     7.8185   7.8185   7.8802   7.8802   8.2462   8.2463

          k = 0.5000 0.1769 0.3622 (  9450 PWs)   bands (ev):

    -5.6649  -5.6649  -4.3843  -4.3843  -3.7039  -3.7039  -3.2951  -3.2951
    -1.2336  -1.2336  -0.7762  -0.7762   0.0307   0.0307   1.7953   1.7953
     1.8200   1.8200   2.1732   2.1732   2.7994   2.7994   3.3772   3.3772
     3.5542   3.5542   3.6885   3.6885   4.4035   4.4035   5.1538   5.1538
     7.8539   7.8539   7.9151   7.9151   8.3476   8.3477

          k = 0.5000 0.1676 0.3753 (  9450 PWs)   bands (ev):

    -5.6505  -5.6504  -4.4338  -4.4338  -3.6919  -3.6919  -3.2719  -3.2719
    -1.2480  -1.2480  -0.7783  -0.7783   0.1056   0.1056   1.7628   1.7628
     1.8177   1.8177   2.1499   2.1500   2.8302   2.8302   3.3494   3.3494
     3.5415   3.5415   3.7049   3.7049   4.3203   4.3203   5.1337   5.1337
     7.8925   7.8925   7.9515   7.9515   8.4547   8.4547

          k = 0.5000 0.1583 0.3885 (  9456 PWs)   bands (ev):

    -5.6349  -5.6349  -4.4829  -4.4829  -3.6790  -3.6790  -3.2523  -3.2523
    -1.2582  -1.2582  -0.7809  -0.7809   0.1812   0.1812   1.7320   1.7320
     1.8146   1.8146   2.1242   2.1242   2.8580   2.8580   3.3235   3.3235
     3.5280   3.5280   3.7247   3.7247   4.2364   4.2364   5.1111   5.1111
     7.9343   7.9343   7.9892   7.9892   8.5670   8.5670

          k = 0.5000 0.1490 0.4017 (  9462 PWs)   bands (ev):

    -5.6182  -5.6182  -4.5313  -4.5313  -3.6653  -3.6653  -3.2363  -3.2363
    -1.2641  -1.2641  -0.7842  -0.7842   0.2573   0.2573   1.7032   1.7032
     1.8105   1.8105   2.0962   2.0962   2.8827   2.8827   3.3000   3.3000
     3.5139   3.5139   3.7481   3.7481   4.1523   4.1523   5.0863   5.0863
     7.9792   7.9792   8.0280   8.0280   8.6840   8.6840

          k = 0.5000 0.1397 0.4148 (  9458 PWs)   bands (ev):

    -5.6004  -5.6004  -4.5792  -4.5792  -3.6508  -3.6508  -3.2239  -3.2239
    -1.2658  -1.2658  -0.7882  -0.7882   0.3340   0.3340   1.6764   1.6764
     1.8052   1.8052   2.0659   2.0659   2.9044   2.9044   3.2790   3.2790
     3.4991   3.4991   3.7751   3.7751   4.0684   4.0684   5.0593   5.0593
     8.0270   8.0270   8.0675   8.0675   8.7207   8.7207

          k = 0.5000 0.1304 0.4280 (  9446 PWs)   bands (ev):

    -5.5814  -5.5814  -4.6264  -4.6264  -3.6354  -3.6354  -3.2151  -3.2151
    -1.2634  -1.2634  -0.7930  -0.7930   0.4109   0.4109   1.6519   1.6519
     1.7984   1.7984   2.0338   2.0338   2.9232   2.9232   3.2609   3.2609
     3.4838   3.4838   3.8057   3.8057   3.9853   3.9853   5.0301   5.0301
     8.0777   8.0777   8.1075   8.1075   8.7375   8.7375

          k = 0.5000 0.1211 0.4412 (  9442 PWs)   bands (ev):

    -5.5613  -5.5613  -4.6729  -4.6729  -3.6193  -3.6193  -3.2099  -3.2099
    -1.2571  -1.2571  -0.7986  -0.7986   0.4881   0.4881   1.6296   1.6296
     1.7901   1.7901   2.0000   2.0000   2.9394   2.9394   3.2457   3.2457
     3.4681   3.4681   3.8396   3.8396   3.9035   3.9035   4.9990   4.9990
     8.1312   8.1312   8.1478   8.1478   8.7465   8.7465

          k = 0.5000 0.1117 0.4543 (  9446 PWs)   bands (ev):

    -5.5402  -5.5401  -4.7186  -4.7186  -3.6025  -3.6025  -3.2081  -3.2081
    -1.2473  -1.2473  -0.8053  -0.8053   0.5652   0.5652   1.6097   1.6097
     1.7797   1.7797   1.9649   1.9649   2.9535   2.9535   3.2334   3.2334
     3.4520   3.4520   3.8234   3.8234   3.8767   3.8767   4.9658   4.9658
     8.1875   8.1876   8.1878   8.1879   8.7490   8.7490

          k = 0.5000 0.1024 0.4675 (  9438 PWs)   bands (ev):

    -5.5178  -5.5178  -4.7636  -4.7636  -3.5850  -3.5850  -3.2095  -3.2095
    -1.2342  -1.2342  -0.8130  -0.8130   0.6422   0.6422   1.5923   1.5923
     1.7671   1.7671   1.9290   1.9290   2.9658   2.9658   3.2240   3.2240
     3.4357   3.4357   3.7455   3.7455   3.9166   3.9166   4.9307   4.9307
     8.2278   8.2278   8.2462   8.2462   8.7465   8.7465

          k = 0.5000 0.0931 0.4807 (  9444 PWs)   bands (ev):

    -5.4944  -5.4944  -4.8078  -4.8078  -3.5668  -3.5668  -3.2138  -3.2138
    -1.2181  -1.2181  -0.8219  -0.8219   0.7187   0.7187   1.5776   1.5776
     1.7520   1.7520   1.8926   1.8926   2.9770   2.9770   3.2173   3.2173
     3.4191   3.4191   3.6702   3.6702   3.9589   3.9589   4.8938   4.8938
     8.2669   8.2669   8.3076   8.3076   8.7401   8.7401

          k = 0.5000 0.0838 0.4938 (  9448 PWs)   bands (ev):

    -5.4699  -5.4699  -4.8512  -4.8512  -3.5481  -3.5481  -3.2210  -3.2210
    -1.1996  -1.1996  -0.8321  -0.8321   0.7947   0.7947   1.5656   1.5656
     1.7340   1.7340   1.8563   1.8563   2.9874   2.9874   3.2133   3.2133
     3.4025   3.4025   3.5980   3.5980   4.0034   4.0034   4.8552   4.8552
     8.3051   8.3051   8.3714   8.3714   8.7308   8.7308

          k = 0.5000 0.0745 0.5070 (  9444 PWs)   bands (ev):

    -5.4443  -5.4443  -4.8937  -4.8937  -3.5288  -3.5288  -3.2305  -3.2305
    -1.1790  -1.1790  -0.8436  -0.8436   0.8698   0.8698   1.5565   1.5565
     1.7129   1.7129   1.8204   1.8204   2.9977   2.9977   3.2117   3.2117
     3.3859   3.3859   3.5293   3.5293   4.0496   4.0496   4.8149   4.8149
     8.3421   8.3421   8.4376   8.4376   8.7192   8.7192

          k = 0.5000 0.0652 0.5202 (  9450 PWs)   bands (ev):

    -5.4176  -5.4176  -4.9354  -4.9354  -3.5091  -3.5091  -3.2423  -3.2423
    -1.1567  -1.1567  -0.8565  -0.8565   0.9438   0.9438   1.5503   1.5503
     1.6883   1.6883   1.7855   1.7855   3.0085   3.0085   3.2123   3.2123
     3.3695   3.3695   3.4645   3.4645   4.0972   4.0972   4.7731   4.7731
     8.3776   8.3776   8.5059   8.5059   8.7058   8.7058

          k = 0.5000 0.0559 0.5334 (  9452 PWs)   bands (ev):

    -5.3899  -5.3899  -4.9762  -4.9762  -3.4889  -3.4889  -3.2560  -3.2560
    -1.1332  -1.1332  -0.8708  -0.8708   1.0163   1.0163   1.5472   1.5472
     1.6599   1.6599   1.7519   1.7519   3.0201   3.0201   3.2151   3.2151
     3.3532   3.3532   3.4040   3.4040   4.1459   4.1459   4.7298   4.7299
     8.4116   8.4116   8.5765   8.5765   8.6911   8.6911

          k = 0.5000 0.0466 0.5465 (  9450 PWs)   bands (ev):

    -5.3610  -5.3610  -5.0161  -5.0161  -3.4684  -3.4684  -3.2714  -3.2714
    -1.1088  -1.1088  -0.8866  -0.8866   1.0871   1.0871   1.5473   1.5473
     1.6275   1.6275   1.7199   1.7199   3.0333   3.0333   3.2197   3.2197
     3.3373   3.3373   3.3480   3.3480   4.1954   4.1954   4.6852   4.6852
     8.4438   8.4438   8.6491   8.6492   8.6751   8.6751

          k = 0.5000 0.0372 0.5597 (  9448 PWs)   bands (ev):

    -5.3311  -5.3311  -5.0550  -5.0550  -3.4477  -3.4477  -3.2881  -3.2881
    -1.0839  -1.0839  -0.9038  -0.9038   1.1558   1.1558   1.5506   1.5506
     1.5910   1.5910   1.6900   1.6900   3.0485   3.0485   3.2261   3.2261
     3.2967   3.2967   3.3217   3.3217   4.2454   4.2454   4.6394   4.6394
     8.4743   8.4743   8.6581   8.6581   8.7238   8.7238

          k = 0.5000 0.0279 0.5729 (  9446 PWs)   bands (ev):

    -5.3002  -5.3002  -5.0930  -5.0930  -3.4269  -3.4269  -3.3060  -3.3060
    -1.0590  -1.0589  -0.9225  -0.9225   1.2221   1.2221   1.5503   1.5503
     1.5570   1.5570   1.6624   1.6624   3.0662   3.0662   3.2341   3.2341
     3.2502   3.2502   3.3067   3.3067   4.2958   4.2958   4.5925   4.5925
     8.5029   8.5029   8.6400   8.6400   8.8003   8.8003

          k = 0.5000 0.0186 0.5860 (  9450 PWs)   bands (ev):

    -5.2682  -5.2682  -5.1300  -5.1300  -3.4060  -3.4060  -3.3249  -3.3249
    -1.0342  -1.0342  -0.9426  -0.9426   1.2856   1.2856   1.5052   1.5053
     1.5668   1.5668   1.6374   1.6374   3.0870   3.0870   3.2086   3.2086
     3.2435   3.2435   3.2923   3.2923   4.3462   4.3462   4.5445   4.5445
     8.5297   8.5297   8.6207   8.6207   8.8786   8.8786

          k = 0.5000 0.0093 0.5992 (  9450 PWs)   bands (ev):

    -5.2352  -5.2352  -5.1661  -5.1661  -3.3852  -3.3852  -3.3445  -3.3445
    -1.0100  -1.0100  -0.9640  -0.9640   1.3460   1.3460   1.4561   1.4561
     1.5798   1.5798   1.6152   1.6152   3.1112   3.1112   3.1717   3.1717
     3.2541   3.2542   3.2787   3.2787   4.3965   4.3965   4.4958   4.4958
     8.5547   8.5547   8.6001   8.6001   8.9587   8.9587

          k = 0.5000-0.0000 0.6124 (  9420 PWs)   bands (ev):

    -5.2011  -5.2011  -5.2011  -5.2011  -3.3647  -3.3647  -3.3647  -3.3646
    -0.9865  -0.9865  -0.9865  -0.9865   1.4029   1.4029   1.4029   1.4029
     1.5959   1.5959   1.5959   1.5959   3.1393   3.1393   3.1393   3.1393
     3.2659   3.2659   3.2659   3.2659   4.4464   4.4464   4.4464   4.4464
     8.5782   8.5782   8.5782   8.5782   9.0404   9.0404

          k = 0.5000-0.0137 0.6027 (  9450 PWs)   bands (ev):

    -5.2245  -5.2245  -5.1766  -5.1766  -3.4226  -3.4226  -3.3065  -3.3065
    -1.0394  -1.0394  -0.9336  -0.9335   1.3450   1.3450   1.4603   1.4603
     1.5927   1.5927   1.6012   1.6012   3.0823   3.0823   3.1922   3.1922
     3.1963   3.1963   3.3400   3.3400   4.4184   4.4184   4.4734   4.4734
     8.4732   8.4732   8.6854   8.6854   8.9803   8.9803

          k = 0.5000-0.0275 0.5929 (  9450 PWs)   bands (ev):

    -5.2469  -5.2469  -5.1509  -5.1509  -3.4801  -3.4801  -3.2480  -3.2480
    -1.0923  -1.0923  -0.8806  -0.8806   1.2865   1.2865   1.5169   1.5169
     1.5915   1.5915   1.6083   1.6083   3.0253   3.0253   3.1189   3.1189
     3.2532   3.2532   3.4141   3.4141   4.3896   4.3896   4.4993   4.4993
     8.3707   8.3707   8.7948   8.7948   8.9229   8.9229

          k = 0.5000-0.0412 0.5832 (  9430 PWs)   bands (ev):

    -5.2681  -5.2681  -5.1242  -5.1242  -3.5373  -3.5373  -3.1893  -3.1893
    -1.1453  -1.1453  -0.8275  -0.8275   1.2276   1.2276   1.5726   1.5726
     1.5923   1.5923   1.6175   1.6175   2.9686   2.9686   3.0463   3.0463
     3.3097   3.3097   3.4882   3.4882   4.3603   4.3603   4.5240   4.5240
     8.2708   8.2708   8.8683   8.8683   8.9063   8.9063

          k = 0.5000-0.0550 0.5735 (  9434 PWs)   bands (ev):

    -5.2882  -5.2882  -5.0964  -5.0964  -3.5940  -3.5940  -3.1304  -3.1304
    -1.1983  -1.1983  -0.7743  -0.7743   1.1684   1.1684   1.5951   1.5951
     1.6274   1.6274   1.6284   1.6284   2.9122   2.9122   2.9744   2.9744
     3.3656   3.3656   3.5621   3.5621   4.3304   4.3304   4.5471   4.5471
     8.1737   8.1737   8.8167   8.8167   9.0197   9.0197

          k = 0.5000-0.0687 0.5638 (  9448 PWs)   bands (ev):

    -5.3072  -5.3072  -5.0675  -5.0675  -3.6503  -3.6503  -3.0713  -3.0713
    -1.2514  -1.2514  -0.7211  -0.7211   1.1089   1.1089   1.6001   1.6001
     1.6414   1.6414   1.6810   1.6810   2.8563   2.8563   2.9035   2.9035
     3.4209   3.4209   3.6354   3.6354   4.3003   4.3003   4.5687   4.5687
     8.0796   8.0796   8.7684   8.7684   9.1348   9.1348

          k = 0.5000-0.0825 0.5541 (  9452 PWs)   bands (ev):

    -5.3250  -5.3250  -5.0376  -5.0376  -3.7062  -3.7062  -3.0120  -3.0120
    -1.3047  -1.3047  -0.6677  -0.6677   1.0493   1.0493   1.6072   1.6072
     1.6561   1.6561   1.7333   1.7333   2.8009   2.8009   2.8336   2.8336
     3.4752   3.4752   3.7080   3.7080   4.2700   4.2700   4.5885   4.5885
     7.9888   7.9888   8.7233   8.7233   9.2515   9.2515

          k = 0.5000-0.0962 0.5443 (  9448 PWs)   bands (ev):

    -5.3418  -5.3418  -5.0066  -5.0066  -3.7615  -3.7615  -2.9527  -2.9527
    -1.3580  -1.3580  -0.6141  -0.6141   0.9895   0.9895   1.6165   1.6165
     1.6726   1.6726   1.7841   1.7841   2.7461   2.7461   2.7650   2.7650
     3.5283   3.5283   3.7797   3.7797   4.2399   4.2399   4.6063   4.6063
     7.9015   7.9015   8.6818   8.6818   9.3698   9.3698

          k = 0.5000-0.1100 0.5346 (  9450 PWs)   bands (ev):

    -5.3573  -5.3573  -4.9746  -4.9746  -3.8163  -3.8163  -2.8934  -2.8934
    -1.4116  -1.4115  -0.5603  -0.5603   0.9296   0.9296   1.6279   1.6279
     1.6909   1.6909   1.8332   1.8332   2.6919   2.6919   2.6976   2.6976
     3.5799   3.5799   3.8503   3.8503   4.2101   4.2101   4.6220   4.6220
     7.8180   7.8180   8.6439   8.6440   9.3954   9.3954

          k = 0.5000-0.1237 0.5249 (  9454 PWs)   bands (ev):

    -5.3718  -5.3718  -4.9415  -4.9415  -3.8705  -3.8705  -2.8340  -2.8340
    -1.4653  -1.4653  -0.5063  -0.5063   0.8697   0.8697   1.6415   1.6415
     1.7110   1.7110   1.8804   1.8804   2.6316   2.6316   2.6386   2.6386
     3.6299   3.6299   3.9194   3.9194   4.1808   4.1808   4.6353   4.6353
     7.7385   7.7385   8.6100   8.6100   9.3087   9.3087

          k = 0.5000-0.1375 0.5152 (  9450 PWs)   bands (ev):

    -5.3851  -5.3851  -4.9074  -4.9074  -3.9242  -3.9242  -2.7746  -2.7746
    -1.5192  -1.5192  -0.4521  -0.4521   0.8098   0.8098   1.6573   1.6573
     1.7327   1.7328   1.9254   1.9254   2.5672   2.5672   2.5860   2.5860
     3.6778   3.6778   3.9867   3.9867   4.1523   4.1523   4.6461   4.6461
     7.6635   7.6635   8.5802   8.5802   9.2247   9.2247

          k = 0.5000-0.1512 0.5055 (  9452 PWs)   bands (ev):

    -5.3972  -5.3972  -4.8722  -4.8722  -3.9772  -3.9772  -2.7152  -2.7152
    -1.5733  -1.5733  -0.3977  -0.3977   0.7500   0.7500   1.6754   1.6754
     1.7562   1.7562   1.9680   1.9680   2.5044   2.5044   2.5344   2.5344
     3.7233   3.7233   4.0522   4.0522   4.1248   4.1248   4.6541   4.6541
     7.5932   7.5932   8.5547   8.5547   9.1439   9.1439

          k = 0.5000-0.1650 0.4957 (  9446 PWs)   bands (ev):

    -5.4082  -5.4082  -4.8361  -4.8361  -4.0295  -4.0295  -2.6560  -2.6560
    -1.6277  -1.6277  -0.3430  -0.3430   0.6903   0.6903   1.6957   1.6957
     1.7814   1.7814   2.0078   2.0078   2.4432   2.4432   2.4837   2.4837
     3.7661   3.7661   4.0986   4.0986   4.1154   4.1154   4.6592   4.6592
     7.5279   7.5279   8.5338   8.5338   9.0666   9.0666

          k = 0.5000-0.1787 0.4860 (  9446 PWs)   bands (ev):

    -5.4181  -5.4181  -4.7990  -4.7990  -4.0812  -4.0812  -2.5968  -2.5968
    -1.6824  -1.6824  -0.2880  -0.2880   0.6308   0.6308   1.7182   1.7182
     1.8081   1.8081   2.0447   2.0447   2.3839   2.3839   2.4340   2.4340
     3.8058   3.8058   4.0740   4.0740   4.1761   4.1761   4.6611   4.6611
     7.4681   7.4681   8.5176   8.5176   8.9931   8.9931

          k = 0.5000-0.1925 0.4763 (  9454 PWs)   bands (ev):

    -5.4268  -5.4268  -4.7609  -4.7608  -4.1322  -4.1322  -2.5378  -2.5378
    -1.7374  -1.7374  -0.2328  -0.2328   0.5714   0.5714   1.7430   1.7430
     1.8365   1.8365   2.0783   2.0783   2.3264   2.3264   2.3854   2.3854
     3.8420   3.8420   4.0513   4.0513   4.2340   4.2340   4.6597   4.6597
     7.4141   7.4141   8.5063   8.5063   8.9238   8.9238

          k = 0.5000-0.2062 0.4666 (  9438 PWs)   bands (ev):

    -5.4343  -5.4343  -4.7218  -4.7218  -4.1824  -4.1824  -2.4789  -2.4789
    -1.7926  -1.7926  -0.1773  -0.1773   0.5122   0.5122   1.7701   1.7701
     1.8665   1.8665   2.1082   2.1082   2.2708   2.2708   2.3378   2.3378
     3.8744   3.8744   4.0307   4.0307   4.2890   4.2890   4.6548   4.6548
     7.3663   7.3663   8.5002   8.5002   8.8591   8.8591

          k = 0.5000-0.2199 0.4568 (  9438 PWs)   bands (ev):

    -5.4407  -5.4407  -4.6817  -4.6817  -4.2320  -4.2320  -2.4202  -2.4202
    -1.8481  -1.8481  -0.1215  -0.1215   0.4532   0.4532   1.7995   1.7995
     1.8980   1.8980   2.1342   2.1342   2.2172   2.2172   2.2914   2.2914
     3.9026   3.9026   4.0127   4.0127   4.3407   4.3407   4.6462   4.6462
     7.3252   7.3252   8.4993   8.4993   8.7991   8.7991

          k = 0.5000-0.2337 0.4471 (  9442 PWs)   bands (ev):

    -5.4460  -5.4460  -4.6407  -4.6407  -4.2807  -4.2807  -2.3618  -2.3618
    -1.9040  -1.9040  -0.0653  -0.0653   0.3944   0.3944   1.8312   1.8312
     1.9310   1.9310   2.1560   2.1560   2.1656   2.1656   2.2461   2.2461
     3.9261   3.9261   3.9975   3.9975   4.3889   4.3889   4.6337   4.6337
     7.2909   7.2909   8.5038   8.5038   8.7441   8.7441

          k = 0.5000-0.2474 0.4374 (  9438 PWs)   bands (ev):

    -5.4500  -5.4500  -4.5988  -4.5988  -4.3287  -4.3287  -2.3036  -2.3036
    -1.9602  -1.9602  -0.0089  -0.0089   0.3360   0.3360   1.8652   1.8652
     1.9655   1.9655   2.1162   2.1162   2.1732   2.1732   2.2021   2.2021
     3.9448   3.9449   3.9854   3.9854   4.4335   4.4335   4.6174   4.6174
     7.2639   7.2639   8.5139   8.5139   8.6945   8.6945

          k = 0.5000-0.2612 0.4277 (  9438 PWs)   bands (ev):

    -5.4529  -5.4529  -4.5560  -4.5560  -4.3758  -4.3758  -2.2456  -2.2456
    -2.0166  -2.0166   0.0478   0.0478   0.2777   0.2777   1.9014   1.9014
     2.0015   2.0015   2.0688   2.0688   2.1593   2.1593   2.1857   2.1857
     3.9584   3.9584   3.9766   3.9766   4.4743   4.4743   4.5970   4.5970
     7.2444   7.2444   8.5298   8.5298   8.6503   8.6503

          k = 0.5000-0.2749 0.4180 (  9414 PWs)   bands (ev):

    -5.4547  -5.4547  -4.5122  -4.5122  -4.4222  -4.4222  -2.1879  -2.1879
    -2.0734  -2.0734   0.1049   0.1049   0.2198   0.2198   1.9399   1.9399
     2.0236   2.0236   2.0389   2.0389   2.1179   2.1179   2.1933   2.1933
     3.9666   3.9667   3.9712   3.9712   4.5111   4.5111   4.5725   4.5725
     7.2326   7.2326   8.5513   8.5513   8.6116   8.6116

          k = 0.5000-0.2887 0.4082 (  9432 PWs)   bands (ev):

    -5.4553  -5.4553  -4.4676  -4.4676  -4.4676  -4.4676  -2.1305  -2.1305
    -2.1305  -2.1305   0.1622   0.1622   0.1622   0.1622   1.9807   1.9807
     1.9807   1.9807   2.0777   2.0777   2.0777   2.0777   2.1958   2.1958
     3.9694   3.9694   3.9694   3.9694   4.5438   4.5438   4.5438   4.5438
     7.2286   7.2286   8.5786   8.5786   8.5786   8.5786

     Writing all to output data dir ./outdir_kpt_888_ecutWfc_40_ecutrho_160_scf_bands/Si.save/ :
     XML data file, pseudopotentials, collected wavefunctions

     init_run     :      0.04s CPU      0.49s WALL (       1 calls)
     electrons    :    220.67s CPU    222.72s WALL (       1 calls)

     Called by init_run:
     wfcinit      :      0.00s CPU      0.43s WALL (       1 calls)
     wfcinit:wfcr :      3.70s CPU      3.74s WALL (      50 calls)
     potinit      :      0.02s CPU      0.03s WALL (       1 calls)
     hinit0       :      0.00s CPU      0.01s WALL (       1 calls)

     Called by electrons:
     c_bands      :    220.67s CPU    222.70s WALL (       1 calls)
     v_of_rho     :      0.01s CPU      0.02s WALL (       1 calls)
     v_h          :      0.00s CPU      0.00s WALL (       1 calls)
     v_xc_meta    :      0.01s CPU      0.01s WALL (       1 calls)

     Called by c_bands:
     init_us_2    :      0.03s CPU      0.03s WALL (      50 calls)
     ccgdiagg     :    171.05s CPU    173.00s WALL (      50 calls)
     wfcrot       :      3.70s CPU      3.74s WALL (      50 calls)

     Called by sum_band:

     Called by *cgdiagg:
     h_psi        :    149.45s CPU    151.15s WALL (   64789 calls)

     Called by h_psi:
     h_psi:calbec :     12.52s CPU     12.69s WALL (   64789 calls)
     vloc_psi     :     33.00s CPU     33.44s WALL (   64789 calls)
     add_vuspsi   :      9.02s CPU      9.16s WALL (   64789 calls)
     h_psi_meta   :     94.42s CPU     95.39s WALL (   64789 calls)
     hs_1psi      :    146.28s CPU    147.94s WALL (   64739 calls)
     s_1psi       :     12.57s CPU     12.69s WALL (   64739 calls)

     General routines
     calbec       :     24.67s CPU     25.02s WALL (  129528 calls)
     fft          :      0.00s CPU      0.01s WALL (      11 calls)
     fftw         :    113.62s CPU    114.87s WALL (  533112 calls)
     interpolate  :      0.00s CPU      0.00s WALL (       1 calls)
     davcio       :      0.02s CPU      0.03s WALL (     100 calls)

     Parallel routines

     PWSCF        :   3m41.66s CPU   4m 3.27s WALL


   This run was terminated on:  15:17:23   9Jun2025            

=------------------------------------------------------------------------------=
   JOB DONE.
=------------------------------------------------------------------------------=
