
     Program BANDS v.7.4.1 starts on  9Jun2025 at 15:17:39 

     This program is part of the open-source Quantum ESPRESSO suite
     for quantum simulation of materials; please cite
         "P. Giannozzi et al., J. Phys.:Condens. Matter 21 395502 (2009);
         "P. Giannozzi et al., J. Phys.:Condens. Matter 29 465901 (2017);
         "P. Giannozzi et al., J. Chem. Phys. 152 154105 (2020);
          URL http://www.quantum-espresso.org", 
     in publications or presentations arising from this work. More details at
     http://www.quantum-espresso.org/quote

     Parallel version (MPI), running on     1 processors

     MPI processes distributed on     1 nodes
     554581 MiB available memory on the printing compute node when the environment starts


     Reading xml data from directory:

     ./outdir_kpt_888_ecutWfc_40_ecutrho_160_scf_bands/Si.save/

     WARNING: libxc functional with ID  497 depends
      on external parameters: check the user_guide of
      QE if you need to modify them or to check their
      default values.

     WARNING: libxc functional with ID  498 depends
      on external parameters: check the user_guide of
      QE if you need to modify them or to check their
      default values.

     IMPORTANT: XC functional enforced from input :
     Exchange-correlation= R2SCAN
                           (   0   0   0   0   0 497 498)
     Any further DFT definition will be discarded
     Please, verify this is what you really want


     G-vector sticks info
     --------------------
     sticks:   dense  smooth     PW     G-vecs:    dense   smooth      PW
     Sum        2347    2347    649                75457    75457   11017

     Using Slab Decomposition

     Reading meta-gga kinetic term
     Reading collected, re-writing distributed wavefunctions
     high-symmetry point:  0.0000 0.0000 0.0000   x coordinate   0.0000
     high-symmetry point:  0.5000-0.2887 0.4082   x coordinate   0.7071
     high-symmetry point:  0.6250-0.0722 0.4082   x coordinate   0.9571
     high-symmetry point:  0.3750 0.2165 0.6124   x coordinate   0.9571
     high-symmetry point:  0.0000 0.0000 0.0000   x coordinate   1.7071
     high-symmetry point:  0.5000 0.2887 0.2041   x coordinate   2.3195
     high-symmetry point:  0.5000-0.0000 0.6124   x coordinate   2.8195
     high-symmetry point:  0.5000-0.2887 0.4082   x coordinate   3.1730

     Plottable bands (eV) written to file si_bands.dat.gnu
     Bands written to file si_bands.dat

 **************************************************************************

                    xk=(   0.00000,   0.00000,   0.00000  )

     point group C_1 (1)    
     there are  1 classes
     the character table:

       E    
A      1.00

     the symmetry operations in each class and the name of the first element:

     E        1
                                                                 

     Band symmetry, C_1 (1)     point group:

     e(  1 -  1) =     -6.57302  eV     1   --> A              
     e(  2 -  5) =     -4.18809  eV     4   -->   4 A              
     e(  6 - 11) =     -2.28653  eV     6   -->   6 A              
     e( 12 - 15) =     -1.31479  eV     4   -->   4 A              
     e( 16 - 21) =      2.96367  eV     6   -->   6 A              
     e( 22 - 29) =      4.67260  eV     8   -->   8 A              
     e( 30 - 32) =      5.94022  eV     3   -->   3 A              
     e( 33 - 38) =      6.83846  eV     6   -->   6 A              

 **************************************************************************

 **************************************************************************

                    xk=(   0.01136,  -0.00656,   0.00928  )

     Band symmetry, C_1 (1)     point group:

     e(  1 -  1) =     -6.57244  eV     1   --> A              
     e(  2 -  5) =     -4.18852  eV     4   -->   4 A              
     e(  6 -  6) =     -2.37734  eV     1   --> A              
     e(  7 - 10) =     -2.28635  eV     4   -->   4 A              
     e( 11 - 11) =     -2.19502  eV     1   --> A              
     e( 12 - 15) =     -1.31341  eV     4   -->   4 A              
     e( 16 - 18) =      2.96201  eV     3   -->   3 A              
     e( 19 - 19) =      2.96217  eV     1   --> A              
     e( 20 - 21) =      2.96408  eV     2   -->   2 A              
     e( 22 - 25) =      4.66851  eV     4   -->   4 A              
     e( 26 - 29) =      4.67241  eV     4   -->   4 A              
     e( 30 - 30) =      5.93591  eV     1   --> A              
     e( 31 - 32) =      5.93763  eV     2   -->   2 A              
     e( 33 - 33) =      6.81758  eV     1   --> A              
     e( 34 - 37) =      6.84163  eV     4   -->   4 A              
     e( 38 - 38) =      6.86090  eV     1   --> A              

 **************************************************************************

 **************************************************************************

                    xk=(   0.02273,  -0.01312,   0.01856  )

     Band symmetry, C_1 (1)     point group:

     e(  1 -  1) =     -6.57068  eV     1   --> A              
     e(  2 -  5) =     -4.18981  eV     4   -->   4 A              
     e(  6 -  6) =     -2.46742  eV     1   --> A              
     e(  7 - 10) =     -2.28580  eV     4   -->   4 A              
     e( 11 - 11) =     -2.10279  eV     1   --> A              
     e( 12 - 15) =     -1.30927  eV     4   -->   4 A              
     e( 16 - 19) =      2.95700  eV     4   -->   4 A              
     e( 20 - 21) =      2.96580  eV     2   -->   2 A              
     e( 22 - 25) =      4.65628  eV     4   -->   4 A              
     e( 26 - 29) =      4.67190  eV     4   -->   4 A              
     e( 30 - 30) =      5.92296  eV     1   --> A              
     e( 31 - 32) =      5.92996  eV     2   -->   2 A              
     e( 33 - 33) =      6.79825  eV     1   --> A              
     e( 34 - 37) =      6.85112  eV     4   -->   4 A              
     e( 38 - 38) =      6.88490  eV     1   --> A              

 **************************************************************************

 **************************************************************************

                    xk=(   0.03409,  -0.01968,   0.02784  )

     Band symmetry, C_1 (1)     point group:

     e(  1 -  1) =     -6.56776  eV     1   --> A              
     e(  2 -  5) =     -4.19196  eV     4   -->   4 A              
     e(  6 -  6) =     -2.55677  eV     1   --> A              
     e(  7 - 10) =     -2.28489  eV     4   -->   4 A              
     e( 11 - 11) =     -2.00989  eV     1   --> A              
     e( 12 - 15) =     -1.30239  eV     4   -->   4 A              
     e( 16 - 19) =      2.94872  eV     4   -->   4 A              
     e( 20 - 21) =      2.96846  eV     2   -->   2 A              
     e( 22 - 25) =      4.63614  eV     4   -->   4 A              
     e( 26 - 29) =      4.67096  eV     4   -->   4 A              
     e( 30 - 30) =      5.90162  eV     1   --> A              
     e( 31 - 32) =      5.91727  eV     2   -->   2 A              
     e( 33 - 33) =      6.78047  eV     1   --> A              
     e( 34 - 37) =      6.86688  eV     4   -->   4 A              
     e( 38 - 38) =      6.91051  eV     1   --> A              

 **************************************************************************

 **************************************************************************

                    xk=(   0.04545,  -0.02624,   0.03711  )

     Band symmetry, C_1 (1)     point group:

     e(  1 -  1) =     -6.56367  eV     1   --> A              
     e(  2 -  5) =     -4.19493  eV     4   -->   4 A              
     e(  6 -  6) =     -2.64536  eV     1   --> A              
     e(  7 - 10) =     -2.28364  eV     4   -->   4 A              
     e( 11 - 11) =     -1.91631  eV     1   --> A              
     e( 12 - 15) =     -1.29278  eV     4   -->   4 A              
     e( 16 - 19) =      2.93727  eV     4   -->   4 A              
     e( 20 - 21) =      2.97221  eV     2   -->   2 A              
     e( 22 - 25) =      4.60842  eV     4   -->   4 A              
     e( 26 - 29) =      4.66973  eV     4   -->   4 A              
     e( 30 - 30) =      5.87221  eV     1   --> A              
     e( 31 - 32) =      5.89977  eV     2   -->   2 A              
     e( 33 - 33) =      6.76421  eV     1   --> A              
     e( 34 - 37) =      6.88871  eV     4   -->   4 A              
     e( 38 - 38) =      6.93769  eV     1   --> A              

 **************************************************************************

 **************************************************************************

                    xk=(   0.05682,  -0.03280,   0.04639  )

     Band symmetry, C_1 (1)     point group:

     e(  1 -  1) =     -6.55842  eV     1   --> A              
     e(  2 -  5) =     -4.19871  eV     4   -->   4 A              
     e(  6 -  6) =     -2.73318  eV     1   --> A              
     e(  7 - 10) =     -2.28202  eV     4   -->   4 A              
     e( 11 - 11) =     -1.82207  eV     1   --> A              
     e( 12 - 15) =     -1.28048  eV     4   -->   4 A              
     e( 16 - 19) =      2.92278  eV     4   -->   4 A              
     e( 20 - 21) =      2.97701  eV     2   -->   2 A              
     e( 22 - 25) =      4.57358  eV     4   -->   4 A              
     e( 26 - 29) =      4.66818  eV     4   -->   4 A              
     e( 30 - 30) =      5.83515  eV     1   --> A              
     e( 31 - 32) =      5.87771  eV     2   -->   2 A              
     e( 33 - 33) =      6.74948  eV     1   --> A              
     e( 34 - 37) =      6.91668  eV     4   -->   4 A              
     e( 38 - 38) =      6.96648  eV     1   --> A              

 **************************************************************************

 **************************************************************************

                    xk=(   0.06818,  -0.03936,   0.05567  )

     Band symmetry, C_1 (1)     point group:

     e(  1 -  1) =     -6.55199  eV     1   --> A              
     e(  2 -  5) =     -4.20326  eV     4   -->   4 A              
     e(  6 -  6) =     -2.82023  eV     1   --> A              
     e(  7 - 10) =     -2.28006  eV     4   -->   4 A              
     e( 11 - 11) =     -1.72719  eV     1   --> A              
     e( 12 - 15) =     -1.26553  eV     4   -->   4 A              
     e( 16 - 19) =      2.90541  eV     4   -->   4 A              
     e( 20 - 21) =      2.98288  eV     2   -->   2 A              
     e( 22 - 25) =      4.53210  eV     4   -->   4 A              
     e( 26 - 29) =      4.66630  eV     4   -->   4 A              
     e( 30 - 30) =      5.79092  eV     1   --> A              
     e( 31 - 32) =      5.85137  eV     2   -->   2 A              
     e( 33 - 33) =      6.73627  eV     1   --> A              
     e( 34 - 37) =      6.95044  eV     4   -->   4 A              
     e( 38 - 38) =      6.99687  eV     1   --> A              

 **************************************************************************

 **************************************************************************

                    xk=(   0.07955,  -0.04593,   0.06495  )

     Band symmetry, C_1 (1)     point group:

     e(  1 -  1) =     -6.54440  eV     1   --> A              
     e(  2 -  5) =     -4.20855  eV     4   -->   4 A              
     e(  6 -  6) =     -2.90649  eV     1   --> A              
     e(  7 - 10) =     -2.27775  eV     4   -->   4 A              
     e( 11 - 11) =     -1.63168  eV     1   --> A              
     e( 12 - 15) =     -1.24798  eV     4   -->   4 A              
     e( 16 - 19) =      2.88535  eV     4   -->   4 A              
     e( 20 - 21) =      2.98981  eV     2   -->   2 A              
     e( 22 - 25) =      4.48455  eV     4   -->   4 A              
     e( 26 - 29) =      4.66411  eV     4   -->   4 A              
     e( 30 - 30) =      5.74008  eV     1   --> A              
     e( 31 - 32) =      5.82115  eV     2   -->   2 A              
     e( 33 - 33) =      6.72455  eV     1   --> A              
     e( 34 - 37) =      6.98999  eV     4   -->   4 A              
     e( 38 - 38) =      7.02887  eV     1   --> A              

 **************************************************************************

 **************************************************************************

                    xk=(   0.09091,  -0.05249,   0.07423  )

     Band symmetry, C_1 (1)     point group:

     e(  1 -  1) =     -6.53565  eV     1   --> A              
     e(  2 -  5) =     -4.21453  eV     4   -->   4 A              
     e(  6 -  6) =     -2.99197  eV     1   --> A              
     e(  7 - 10) =     -2.27511  eV     4   -->   4 A              
     e( 11 - 11) =     -1.53557  eV     1   --> A              
     e( 12 - 15) =     -1.22788  eV     4   -->   4 A              
     e( 16 - 19) =      2.86280  eV     4   -->   4 A              
     e( 20 - 21) =      2.99780  eV     2   -->   2 A              
     e( 22 - 25) =      4.43149  eV     4   -->   4 A              
     e( 26 - 29) =      4.66162  eV     4   -->   4 A              
     e( 30 - 30) =      5.68315  eV     1   --> A              
     e( 31 - 32) =      5.78722  eV     2   -->   2 A              
     e( 33 - 33) =      6.71419  eV     1   --> A              
     e( 34 - 37) =      7.03504  eV     4   -->   4 A              
     e( 38 - 38) =      7.06235  eV     1   --> A              

 **************************************************************************

 **************************************************************************

                    xk=(   0.10227,  -0.05905,   0.08351  )

     Band symmetry, C_1 (1)     point group:

     e(  1 -  1) =     -6.52573  eV     1   --> A              
     e(  2 -  5) =     -4.22115  eV     4   -->   4 A              
     e(  6 -  6) =     -3.07662  eV     1   --> A              
     e(  7 - 10) =     -2.27216  eV     4   -->   4 A              
     e( 11 - 11) =     -1.43885  eV     1   --> A              
     e( 12 - 15) =     -1.20529  eV     4   -->   4 A              
     e( 16 - 19) =      2.83799  eV     4   -->   4 A              
     e( 20 - 21) =      3.00686  eV     2   -->   2 A              
     e( 22 - 25) =      4.37345  eV     4   -->   4 A              
     e( 26 - 29) =      4.65884  eV     4   -->   4 A              
     e( 30 - 30) =      5.62072  eV     1   --> A              
     e( 31 - 32) =      5.75014  eV     2   -->   2 A              
     e( 33 - 33) =      6.70545  eV     1   --> A              
     e( 34 - 37) =      7.08537  eV     4   -->   4 A              
     e( 38 - 38) =      7.09760  eV     1   --> A              

 **************************************************************************

 **************************************************************************

                    xk=(   0.11364,  -0.06561,   0.09278  )

     Band symmetry, C_1 (1)     point group:

     e(  1 -  1) =     -6.51464  eV     1   --> A              
     e(  2 -  5) =     -4.22837  eV     4   -->   4 A              
     e(  6 -  6) =     -3.16044  eV     1   --> A              
     e(  7 - 10) =     -2.26890  eV     4   -->   4 A              
     e( 11 - 11) =     -1.34155  eV     1   --> A              
     e( 12 - 15) =     -1.18028  eV     4   -->   4 A              
     e( 16 - 19) =      2.81114  eV     4   -->   4 A              
     e( 20 - 21) =      3.01698  eV     2   -->   2 A              
     e( 22 - 25) =      4.31107  eV     4   -->   4 A              
     e( 26 - 29) =      4.65580  eV     4   -->   4 A              
     e( 30 - 30) =      5.55328  eV     1   --> A              
     e( 31 - 32) =      5.71000  eV     2   -->   2 A              
     e( 33 - 33) =      6.69818  eV     1   --> A              
     e( 34 - 34) =      7.13450  eV     1   --> A              
     e( 35 - 38) =      7.14076  eV     4   -->   4 A              

 **************************************************************************

 **************************************************************************

                    xk=(   0.12500,  -0.07217,   0.10206  )

     Band symmetry, C_1 (1)     point group:

     e(  1 -  1) =     -6.50239  eV     1   --> A              
     e(  2 -  5) =     -4.23613  eV     4   -->   4 A              
     e(  6 -  6) =     -3.24343  eV     1   --> A              
     e(  7 - 10) =     -2.26534  eV     4   -->   4 A              
     e( 11 - 11) =     -1.24375  eV     1   --> A              
     e( 12 - 15) =     -1.15293  eV     4   -->   4 A              
     e( 16 - 19) =      2.78249  eV     4   -->   4 A              
     e( 20 - 21) =      3.02815  eV     2   -->   2 A              
     e( 22 - 25) =      4.24483  eV     4   -->   4 A              
     e( 26 - 29) =      4.65251  eV     4   -->   4 A              
     e( 30 - 30) =      5.48136  eV     1   --> A              
     e( 31 - 32) =      5.66726  eV     2   -->   2 A              
     e( 33 - 33) =      6.69229  eV     1   --> A              
     e( 34 - 34) =      7.17275  eV     1   --> A              
     e( 35 - 38) =      7.20095  eV     4   -->   4 A              

 **************************************************************************

 **************************************************************************

                    xk=(   0.13636,  -0.07873,   0.11134  )

     Band symmetry, C_1 (1)     point group:

     e(  1 -  1) =     -6.48898  eV     1   --> A              
     e(  2 -  5) =     -4.24437  eV     4   -->   4 A              
     e(  6 -  6) =     -3.32557  eV     1   --> A              
     e(  7 - 10) =     -2.26150  eV     4   -->   4 A              
     e( 11 - 11) =     -1.14533  eV     1   --> A              
     e( 12 - 15) =     -1.12330  eV     4   -->   4 A              
     e( 16 - 19) =      2.75229  eV     4   -->   4 A              
     e( 20 - 21) =      3.04039  eV     2   -->   2 A              
     e( 22 - 25) =      4.17517  eV     4   -->   4 A              
     e( 26 - 29) =      4.64898  eV     4   -->   4 A              
     e( 30 - 30) =      5.40543  eV     1   --> A              
     e( 31 - 32) =      5.62229  eV     2   -->   2 A              
     e( 33 - 33) =      6.68792  eV     1   --> A              
     e( 34 - 34) =      7.21291  eV     1   --> A              
     e( 35 - 38) =      7.26593  eV     4   -->   4 A              

 **************************************************************************

 **************************************************************************

                    xk=(   0.14773,  -0.08529,   0.12062  )

     Band symmetry, C_1 (1)     point group:

     e(  1 -  1) =     -6.47440  eV     1   --> A              
     e(  2 -  5) =     -4.25304  eV     4   -->   4 A              
     e(  6 -  6) =     -3.40686  eV     1   --> A              
     e(  7 - 10) =     -2.25739  eV     4   -->   4 A              
     e( 11 - 14) =     -1.09149  eV     4   -->   4 A              
     e( 15 - 15) =     -1.04640  eV     1   --> A              
     e( 16 - 19) =      2.72075  eV     4   -->   4 A              
     e( 20 - 21) =      3.05368  eV     2   -->   2 A              
     e( 22 - 25) =      4.10263  eV     4   -->   4 A              
     e( 26 - 29) =      4.64525  eV     4   -->   4 A              
     e( 30 - 30) =      5.32591  eV     1   --> A              
     e( 31 - 32) =      5.57526  eV     2   -->   2 A              
     e( 33 - 33) =      6.68491  eV     1   --> A              
     e( 34 - 34) =      7.25460  eV     1   --> A              
     e( 35 - 38) =      7.33516  eV     4   -->   4 A              

 **************************************************************************

 **************************************************************************

                    xk=(   0.15909,  -0.09185,   0.12990  )

     Band symmetry, C_1 (1)     point group:

     e(  1 -  1) =     -6.45866  eV     1   --> A              
     e(  2 -  5) =     -4.26207  eV     4   -->   4 A              
     e(  6 -  6) =     -3.48729  eV     1   --> A              
     e(  7 - 10) =     -2.25305  eV     4   -->   4 A              
     e( 11 - 14) =     -1.05757  eV     4   -->   4 A              
     e( 15 - 15) =     -0.94693  eV     1   --> A              
     e( 16 - 19) =      2.68810  eV     4   -->   4 A              
     e( 20 - 21) =      3.06803  eV     2   -->   2 A              
     e( 22 - 25) =      4.02759  eV     4   -->   4 A              
     e( 26 - 29) =      4.64133  eV     4   -->   4 A              
     e( 30 - 30) =      5.24321  eV     1   --> A              
     e( 31 - 32) =      5.52650  eV     2   -->   2 A              
     e( 33 - 33) =      6.68341  eV     1   --> A              
     e( 34 - 34) =      7.29808  eV     1   --> A              
     e( 35 - 38) =      7.40856  eV     4   -->   4 A              

 **************************************************************************

 **************************************************************************

                    xk=(   0.17045,  -0.09841,   0.13918  )

     Band symmetry, C_1 (1)     point group:

     e(  1 -  1) =     -6.44177  eV     1   --> A              
     e(  2 -  5) =     -4.27141  eV     4   -->   4 A              
     e(  6 -  6) =     -3.56683  eV     1   --> A              
     e(  7 - 10) =     -2.24847  eV     4   -->   4 A              
     e( 11 - 14) =     -1.02165  eV     4   -->   4 A              
     e( 15 - 15) =     -0.84695  eV     1   --> A              
     e( 16 - 19) =      2.65459  eV     4   -->   4 A              
     e( 20 - 21) =      3.08343  eV     2   -->   2 A              
     e( 22 - 25) =      3.95042  eV     4   -->   4 A              
     e( 26 - 29) =      4.63723  eV     4   -->   4 A              
     e( 30 - 30) =      5.15767  eV     1   --> A              
     e( 31 - 32) =      5.47628  eV     2   -->   2 A              
     e( 33 - 33) =      6.68331  eV     1   --> A              
     e( 34 - 34) =      7.34322  eV     1   --> A              
     e( 35 - 38) =      7.48596  eV     4   -->   4 A              

 **************************************************************************

 **************************************************************************

                    xk=(   0.18182,  -0.10497,   0.14845  )

     Band symmetry, C_1 (1)     point group:

     e(  1 -  1) =     -6.42371  eV     1   --> A              
     e(  2 -  5) =     -4.28100  eV     4   -->   4 A              
     e(  6 -  6) =     -3.64549  eV     1   --> A              
     e(  7 - 10) =     -2.24371  eV     4   -->   4 A              
     e( 11 - 14) =     -0.98380  eV     4   -->   4 A              
     e( 15 - 15) =     -0.74649  eV     1   --> A              
     e( 16 - 19) =      2.62040  eV     4   -->   4 A              
     e( 20 - 21) =      3.09987  eV     2   -->   2 A              
     e( 22 - 25) =      3.87148  eV     4   -->   4 A              
     e( 26 - 29) =      4.63300  eV     4   -->   4 A              
     e( 30 - 30) =      5.06962  eV     1   --> A              
     e( 31 - 32) =      5.42481  eV     2   -->   2 A              
     e( 33 - 33) =      6.68461  eV     1   --> A              
     e( 34 - 34) =      7.39003  eV     1   --> A              
     e( 35 - 38) =      7.56700  eV     4   -->   4 A              

 **************************************************************************

 **************************************************************************

                    xk=(   0.19318,  -0.11153,   0.15773  )

     Band symmetry, C_1 (1)     point group:

     e(  1 -  1) =     -6.40450  eV     1   --> A              
     e(  2 -  5) =     -4.29078  eV     4   -->   4 A              
     e(  6 -  6) =     -3.72326  eV     1   --> A              
     e(  7 - 10) =     -2.23874  eV     4   -->   4 A              
     e( 11 - 14) =     -0.94413  eV     4   -->   4 A              
     e( 15 - 15) =     -0.64555  eV     1   --> A              
     e( 16 - 19) =      2.58576  eV     4   -->   4 A              
     e( 20 - 21) =      3.11737  eV     2   -->   2 A              
     e( 22 - 25) =      3.79108  eV     4   -->   4 A              
     e( 26 - 29) =      4.62865  eV     4   -->   4 A              
     e( 30 - 30) =      4.97933  eV     1   --> A              
     e( 31 - 32) =      5.37231  eV     2   -->   2 A              
     e( 33 - 33) =      6.68729  eV     1   --> A              
     e( 34 - 34) =      7.43849  eV     1   --> A              
     e( 35 - 38) =      7.65166  eV     4   -->   4 A              

 **************************************************************************

 **************************************************************************

                    xk=(   0.20455,  -0.11809,   0.16701  )

     Band symmetry, C_1 (1)     point group:

     e(  1 -  1) =     -6.38413  eV     1   --> A              
     e(  2 -  5) =     -4.30069  eV     4   -->   4 A              
     e(  6 -  6) =     -3.80012  eV     1   --> A              
     e(  7 - 10) =     -2.23360  eV     4   -->   4 A              
     e( 11 - 14) =     -0.90274  eV     4   -->   4 A              
     e( 15 - 15) =     -0.54416  eV     1   --> A              
     e( 16 - 19) =      2.55085  eV     4   -->   4 A              
     e( 20 - 21) =      3.13591  eV     2   -->   2 A              
     e( 22 - 25) =      3.70952  eV     4   -->   4 A              
     e( 26 - 29) =      4.62420  eV     4   -->   4 A              
     e( 30 - 30) =      4.88705  eV     1   --> A              
     e( 31 - 32) =      5.31897  eV     2   -->   2 A              
     e( 33 - 33) =      6.69135  eV     1   --> A              
     e( 34 - 34) =      7.48863  eV     1   --> A              
     e( 35 - 38) =      7.73973  eV     4   -->   4 A              

 **************************************************************************

 **************************************************************************

                    xk=(   0.21591,  -0.12466,   0.17629  )

     Band symmetry, C_1 (1)     point group:

     e(  1 -  1) =     -6.36260  eV     1   --> A              
     e(  2 -  5) =     -4.31067  eV     4   -->   4 A              
     e(  6 -  6) =     -3.87606  eV     1   --> A              
     e(  7 - 10) =     -2.22833  eV     4   -->   4 A              
     e( 11 - 14) =     -0.85974  eV     4   -->   4 A              
     e( 15 - 15) =     -0.44233  eV     1   --> A              
     e( 16 - 19) =      2.51587  eV     4   -->   4 A              
     e( 20 - 21) =      3.15549  eV     2   -->   2 A              
     e( 22 - 25) =      3.62708  eV     4   -->   4 A              
     e( 26 - 29) =      4.61971  eV     4   -->   4 A              
     e( 30 - 30) =      4.79309  eV     1   --> A              
     e( 31 - 32) =      5.26499  eV     2   -->   2 A              
     e( 33 - 33) =      6.69677  eV     1   --> A              
     e( 34 - 34) =      7.54043  eV     1   --> A              
     e( 35 - 38) =      7.83096  eV     4   -->   4 A              

 **************************************************************************

 **************************************************************************

                    xk=(   0.22727,  -0.13122,   0.18557  )

     Band symmetry, C_1 (1)     point group:

     e(  1 -  1) =     -6.33992  eV     1   --> A              
     e(  2 -  5) =     -4.32068  eV     4   -->   4 A              
     e(  6 -  6) =     -3.95109  eV     1   --> A              
     e(  7 - 10) =     -2.22295  eV     4   -->   4 A              
     e( 11 - 14) =     -0.81524  eV     4   -->   4 A              
     e( 15 - 15) =     -0.34009  eV     1   --> A              
     e( 16 - 19) =      2.48098  eV     4   -->   4 A              
     e( 20 - 21) =      3.17611  eV     2   -->   2 A              
     e( 22 - 25) =      3.54401  eV     4   -->   4 A              
     e( 26 - 29) =      4.61514  eV     4   -->   4 A              
     e( 30 - 30) =      4.69748  eV     1   --> A              
     e( 31 - 32) =      5.21045  eV     2   -->   2 A              
     e( 33 - 33) =      6.70354  eV     1   --> A              
     e( 34 - 34) =      7.59389  eV     1   --> A              
     e( 35 - 38) =      7.92535  eV     4   -->   4 A              

 **************************************************************************

 **************************************************************************

                    xk=(   0.23864,  -0.13778,   0.19485  )

     Band symmetry, C_1 (1)     point group:

     e(  1 -  1) =     -6.31609  eV     1   --> A              
     e(  2 -  5) =     -4.33066  eV     4   -->   4 A              
     e(  6 -  6) =     -4.02518  eV     1   --> A              
     e(  7 - 10) =     -2.21748  eV     4   -->   4 A              
     e( 11 - 14) =     -0.76934  eV     4   -->   4 A              
     e( 15 - 15) =     -0.23743  eV     1   --> A              
     e( 16 - 19) =      2.44635  eV     4   -->   4 A              
     e( 20 - 21) =      3.19777  eV     2   -->   2 A              
     e( 22 - 25) =      3.46057  eV     4   -->   4 A              
     e( 26 - 26) =      4.60049  eV     1   --> A              
     e( 27 - 30) =      4.61053  eV     4   -->   4 A              
     e( 31 - 32) =      5.15554  eV     2   -->   2 A              
     e( 33 - 33) =      6.71164  eV     1   --> A              
     e( 34 - 34) =      7.64901  eV     1   --> A              
     e( 35 - 38) =      8.02248  eV     4   -->   4 A              

 **************************************************************************

 **************************************************************************

                    xk=(   0.25000,  -0.14434,   0.20412  )

     Band symmetry, C_1 (1)     point group:

     e(  1 -  1) =     -6.29111  eV     1   --> A              
     e(  2 -  5) =     -4.34056  eV     4   -->   4 A              
     e(  6 -  6) =     -4.09833  eV     1   --> A              
     e(  7 - 10) =     -2.21195  eV     4   -->   4 A              
     e( 11 - 14) =     -0.72218  eV     4   -->   4 A              
     e( 15 - 15) =     -0.13440  eV     1   --> A              
     e( 16 - 19) =      2.41215  eV     4   -->   4 A              
     e( 20 - 21) =      3.22046  eV     2   -->   2 A              
     e( 22 - 25) =      3.37695  eV     4   -->   4 A              
     e( 26 - 26) =      4.50224  eV     1   --> A              
     e( 27 - 30) =      4.60594  eV     4   -->   4 A              
     e( 31 - 32) =      5.10038  eV     2   -->   2 A              
     e( 33 - 33) =      6.72107  eV     1   --> A              
     e( 34 - 34) =      7.70579  eV     1   --> A              
     e( 35 - 35) =      8.10682  eV     1   --> A              
     e( 36 - 38) =      8.12235  eV     3   -->   3 A              

 **************************************************************************

 **************************************************************************

                    xk=(   0.26136,  -0.15090,   0.21340  )

     Band symmetry, C_1 (1)     point group:

     e(  1 -  1) =     -6.26498  eV     1   --> A              
     e(  2 -  5) =     -4.35034  eV     4   -->   4 A              
     e(  6 -  6) =     -4.17053  eV     1   --> A              
     e(  7 - 10) =     -2.20639  eV     4   -->   4 A              
     e( 11 - 14) =     -0.67388  eV     4   -->   4 A              
     e( 15 - 15) =     -0.03099  eV     1   --> A              
     e( 16 - 19) =      2.37850  eV     4   -->   4 A              
     e( 20 - 21) =      3.24418  eV     2   -->   2 A              
     e( 22 - 25) =      3.29340  eV     4   -->   4 A              
     e( 26 - 26) =      4.40289  eV     1   --> A              
     e( 27 - 30) =      4.60136  eV     4   -->   4 A              
     e( 31 - 32) =      5.04507  eV     2   -->   2 A              
     e( 33 - 33) =      6.73179  eV     1   --> A              
     e( 34 - 34) =      7.76423  eV     1   --> A              
     e( 35 - 35) =      8.06607  eV     1   --> A              
     e( 36 - 38) =      8.22484  eV     3   -->   3 A              

 **************************************************************************

 **************************************************************************

                    xk=(   0.27273,  -0.15746,   0.22268  )

     Band symmetry, C_1 (1)     point group:

     e(  1 -  1) =     -6.23770  eV     1   --> A              
     e(  2 -  5) =     -4.35994  eV     4   -->   4 A              
     e(  6 -  6) =     -4.24178  eV     1   --> A              
     e(  7 - 10) =     -2.20081  eV     4   -->   4 A              
     e( 11 - 14) =     -0.62458  eV     4   -->   4 A              
     e( 15 - 15) =      0.07277  eV     1   --> A              
     e( 16 - 19) =      2.34556  eV     4   -->   4 A              
     e( 20 - 23) =      3.21015  eV     4   -->   4 A              
     e( 24 - 25) =      3.26889  eV     2   -->   2 A              
     e( 26 - 26) =      4.30258  eV     1   --> A              
     e( 27 - 30) =      4.59687  eV     4   -->   4 A              
     e( 31 - 32) =      4.98985  eV     2   -->   2 A              
     e( 33 - 33) =      6.74377  eV     1   --> A              
     e( 34 - 34) =      7.82430  eV     1   --> A              
     e( 35 - 35) =      8.02492  eV     1   --> A              
     e( 36 - 38) =      8.32978  eV     3   -->   3 A              

 **************************************************************************

 **************************************************************************

                    xk=(   0.28409,  -0.16402,   0.23196  )

     Band symmetry, C_1 (1)     point group:

     e(  1 -  1) =     -6.20928  eV     1   --> A              
     e(  2 -  5) =     -4.36933  eV     4   -->   4 A              
     e(  6 -  6) =     -4.31207  eV     1   --> A              
     e(  7 - 10) =     -2.19526  eV     4   -->   4 A              
     e( 11 - 14) =     -0.57444  eV     4   -->   4 A              
     e( 15 - 15) =      0.17687  eV     1   --> A              
     e( 16 - 19) =      2.31345  eV     4   -->   4 A              
     e( 20 - 23) =      3.12739  eV     4   -->   4 A              
     e( 24 - 25) =      3.29467  eV     2   -->   2 A              
     e( 26 - 26) =      4.20137  eV     1   --> A              
     e( 27 - 30) =      4.59238  eV     4   -->   4 A              
     e( 31 - 32) =      4.93454  eV     2   -->   2 A              
     e( 33 - 33) =      6.75708  eV     1   --> A              
     e( 34 - 34) =      7.88601  eV     1   --> A              
     e( 35 - 35) =      7.98339  eV     1   --> A              
     e( 36 - 38) =      8.43707  eV     3   -->   3 A              

 **************************************************************************

 **************************************************************************

                    xk=(   0.29545,  -0.17058,   0.24124  )

     Band symmetry, C_1 (1)     point group:

     e(  1 -  1) =     -6.17972  eV     1   --> A              
     e(  2 -  2) =     -4.38134  eV     1   --> A              
     e(  3 -  6) =     -4.37848  eV     4   -->   4 A              
     e(  7 - 10) =     -2.18976  eV     4   -->   4 A              
     e( 11 - 14) =     -0.52360  eV     4   -->   4 A              
     e( 15 - 15) =      0.28129  eV     1   --> A              
     e( 16 - 19) =      2.28228  eV     4   -->   4 A              
     e( 20 - 23) =      3.04537  eV     4   -->   4 A              
     e( 24 - 25) =      3.32144  eV     2   -->   2 A              
     e( 26 - 26) =      4.09938  eV     1   --> A              
     e( 27 - 30) =      4.58801  eV     4   -->   4 A              
     e( 31 - 32) =      4.87937  eV     2   -->   2 A              
     e( 33 - 33) =      6.77164  eV     1   --> A              
     e( 34 - 34) =      7.94160  eV     1   --> A              
     e( 35 - 35) =      7.94936  eV     1   --> A              
     e( 36 - 38) =      8.52704  eV     3   -->   3 A              

 **************************************************************************

 **************************************************************************

                    xk=(   0.30682,  -0.17714,   0.25052  )

     Band symmetry, C_1 (1)     point group:

     e(  1 -  1) =     -6.14902  eV     1   --> A              
     e(  2 -  2) =     -4.44970  eV     1   --> A              
     e(  3 -  6) =     -4.38731  eV     4   -->   4 A              
     e(  7 - 10) =     -2.18435  eV     4   -->   4 A              
     e( 11 - 14) =     -0.47226  eV     4   -->   4 A              
     e( 15 - 15) =      0.38601  eV     1   --> A              
     e( 16 - 19) =      2.25217  eV     4   -->   4 A              
     e( 20 - 23) =      2.96430  eV     4   -->   4 A              
     e( 24 - 25) =      3.34923  eV     2   -->   2 A              
     e( 26 - 26) =      3.99670  eV     1   --> A              
     e( 27 - 30) =      4.58374  eV     4   -->   4 A              
     e( 31 - 32) =      4.82441  eV     2   -->   2 A              
     e( 33 - 33) =      6.78744  eV     1   --> A              
     e( 34 - 34) =      7.89966  eV     1   --> A              
     e( 35 - 35) =      8.01431  eV     1   --> A              
     e( 36 - 38) =      8.54042  eV     3   -->   3 A              

 **************************************************************************

 **************************************************************************

                    xk=(   0.31818,  -0.18370,   0.25979  )

     Band symmetry, C_1 (1)     point group:

     e(  1 -  1) =     -6.11718  eV     1   --> A              
     e(  2 -  2) =     -4.51705  eV     1   --> A              
     e(  3 -  6) =     -4.39584  eV     4   -->   4 A              
     e(  7 - 10) =     -2.17904  eV     4   -->   4 A              
     e( 11 - 14) =     -0.42060  eV     4   -->   4 A              
     e( 15 - 15) =      0.49103  eV     1   --> A              
     e( 16 - 19) =      2.22324  eV     4   -->   4 A              
     e( 20 - 23) =      2.88443  eV     4   -->   4 A              
     e( 24 - 25) =      3.37801  eV     2   -->   2 A              
     e( 26 - 26) =      3.89339  eV     1   --> A              
     e( 27 - 30) =      4.57965  eV     4   -->   4 A              
     e( 31 - 32) =      4.76973  eV     2   -->   2 A              
     e( 33 - 33) =      6.80453  eV     1   --> A              
     e( 34 - 34) =      7.85762  eV     1   --> A              
     e( 35 - 35) =      8.08106  eV     1   --> A              
     e( 36 - 38) =      8.55112  eV     3   -->   3 A              

 **************************************************************************

 **************************************************************************

                    xk=(   0.32955,  -0.19026,   0.26907  )

     Band symmetry, C_1 (1)     point group:

     e(  1 -  1) =     -6.08420  eV     1   --> A              
     e(  2 -  2) =     -4.58339  eV     1   --> A              
     e(  3 -  6) =     -4.40399  eV     4   -->   4 A              
     e(  7 - 10) =     -2.17388  eV     4   -->   4 A              
     e( 11 - 14) =     -0.36885  eV     4   -->   4 A              
     e( 15 - 15) =      0.59630  eV     1   --> A              
     e( 16 - 19) =      2.19557  eV     4   -->   4 A              
     e( 20 - 23) =      2.80603  eV     4   -->   4 A              
     e( 24 - 25) =      3.40780  eV     2   -->   2 A              
     e( 26 - 26) =      3.78953  eV     1   --> A              
     e( 27 - 30) =      4.57567  eV     4   -->   4 A              
     e( 31 - 32) =      4.71538  eV     2   -->   2 A              
     e( 33 - 33) =      6.82294  eV     1   --> A              
     e( 34 - 34) =      7.81560  eV     1   --> A              
     e( 35 - 35) =      8.14921  eV     1   --> A              
     e( 36 - 38) =      8.55957  eV     3   -->   3 A              

 **************************************************************************

 **************************************************************************

                    xk=(   0.34091,  -0.19682,   0.27835  )

     Band symmetry, C_1 (1)     point group:

     e(  1 -  1) =     -6.05009  eV     1   --> A              
     e(  2 -  2) =     -4.64874  eV     1   --> A              
     e(  3 -  6) =     -4.41176  eV     4   -->   4 A              
     e(  7 - 10) =     -2.16888  eV     4   -->   4 A              
     e( 11 - 14) =     -0.31724  eV     4   -->   4 A              
     e( 15 - 15) =      0.70182  eV     1   --> A              
     e( 16 - 19) =      2.16926  eV     4   -->   4 A              
     e( 20 - 23) =      2.72937  eV     4   -->   4 A              
     e( 24 - 25) =      3.43858  eV     2   -->   2 A              
     e( 26 - 26) =      3.68518  eV     1   --> A              
     e( 27 - 30) =      4.57186  eV     4   -->   4 A              
     e( 31 - 32) =      4.66142  eV     2   -->   2 A              
     e( 33 - 33) =      6.84238  eV     1   --> A              
     e( 34 - 34) =      7.77364  eV     1   --> A              
     e( 35 - 35) =      8.21889  eV     1   --> A              
     e( 36 - 38) =      8.56608  eV     3   -->   3 A              

 **************************************************************************

 **************************************************************************

                    xk=(   0.35227,  -0.20338,   0.28763  )

     Band symmetry, C_1 (1)     point group:

     e(  1 -  1) =     -6.01485  eV     1   --> A              
     e(  2 -  2) =     -4.71308  eV     1   --> A              
     e(  3 -  6) =     -4.41912  eV     4   -->   4 A              
     e(  7 - 10) =     -2.16408  eV     4   -->   4 A              
     e( 11 - 14) =     -0.26606  eV     4   -->   4 A              
     e( 15 - 15) =      0.80758  eV     1   --> A              
     e( 16 - 19) =      2.14440  eV     4   -->   4 A              
     e( 20 - 23) =      2.65475  eV     4   -->   4 A              
     e( 24 - 25) =      3.47035  eV     2   -->   2 A              
     e( 26 - 26) =      3.58042  eV     1   --> A              
     e( 27 - 30) =      4.56824  eV     4   -->   4 A              
     e( 31 - 32) =      4.60800  eV     2   -->   2 A              
     e( 33 - 33) =      6.86300  eV     1   --> A              
     e( 34 - 34) =      7.73185  eV     1   --> A              
     e( 35 - 35) =      8.29011  eV     1   --> A              
     e( 36 - 38) =      8.57093  eV     3   -->   3 A              

 **************************************************************************

 **************************************************************************

                    xk=(   0.36364,  -0.20995,   0.29691  )

     Band symmetry, C_1 (1)     point group:

     e(  1 -  1) =     -5.97848  eV     1   --> A              
     e(  2 -  2) =     -4.77642  eV     1   --> A              
     e(  3 -  6) =     -4.42602  eV     4   -->   4 A              
     e(  7 - 10) =     -2.15950  eV     4   -->   4 A              
     e( 11 - 14) =     -0.21561  eV     4   -->   4 A              
     e( 15 - 15) =      0.91355  eV     1   --> A              
     e( 16 - 19) =      2.12107  eV     4   -->   4 A              
     e( 20 - 23) =      2.58251  eV     4   -->   4 A              
     e( 24 - 24) =      3.47524  eV     1   --> A              
     e( 25 - 26) =      3.50309  eV     2   -->   2 A              
     e( 27 - 28) =      4.55499  eV     2   -->   2 A              
     e( 29 - 32) =      4.56481  eV     4   -->   4 A              
     e( 33 - 33) =      6.88477  eV     1   --> A              
     e( 34 - 34) =      7.69027  eV     1   --> A              
     e( 35 - 35) =      8.36284  eV     1   --> A              
     e( 36 - 38) =      8.57449  eV     3   -->   3 A              

 **************************************************************************

 **************************************************************************

                    xk=(   0.37500,  -0.21651,   0.30619  )

     Band symmetry, C_1 (1)     point group:

     e(  1 -  1) =     -5.94099  eV     1   --> A              
     e(  2 -  2) =     -4.83873  eV     1   --> A              
     e(  3 -  6) =     -4.43246  eV     4   -->   4 A              
     e(  7 - 10) =     -2.15518  eV     4   -->   4 A              
     e( 11 - 14) =     -0.16624  eV     4   -->   4 A              
     e( 15 - 15) =      1.01971  eV     1   --> A              
     e( 16 - 19) =      2.09933  eV     4   -->   4 A              
     e( 20 - 23) =      2.51301  eV     4   -->   4 A              
     e( 24 - 24) =      3.36972  eV     1   --> A              
     e( 25 - 26) =      3.53677  eV     2   -->   2 A              
     e( 27 - 28) =      4.50249  eV     2   -->   2 A              
     e( 29 - 32) =      4.56160  eV     4   -->   4 A              
     e( 33 - 33) =      6.90765  eV     1   --> A              
     e( 34 - 34) =      7.64897  eV     1   --> A              
     e( 35 - 35) =      8.43699  eV     1   --> A              
     e( 36 - 38) =      8.57687  eV     3   -->   3 A              

 **************************************************************************

 **************************************************************************

                    xk=(   0.38636,  -0.22307,   0.31546  )

     Band symmetry, C_1 (1)     point group:

     e(  1 -  1) =     -5.90238  eV     1   --> A              
     e(  2 -  2) =     -4.90002  eV     1   --> A              
     e(  3 -  6) =     -4.43841  eV     4   -->   4 A              
     e(  7 - 10) =     -2.15113  eV     4   -->   4 A              
     e( 11 - 14) =     -0.11835  eV     4   -->   4 A              
     e( 15 - 15) =      1.12606  eV     1   --> A              
     e( 16 - 19) =      2.07925  eV     4   -->   4 A              
     e( 20 - 23) =      2.44671  eV     4   -->   4 A              
     e( 24 - 24) =      3.26389  eV     1   --> A              
     e( 25 - 26) =      3.57146  eV     2   -->   2 A              
     e( 27 - 28) =      4.45054  eV     2   -->   2 A              
     e( 29 - 32) =      4.55863  eV     4   -->   4 A              
     e( 33 - 33) =      6.93168  eV     1   --> A              
     e( 34 - 34) =      7.60796  eV     1   --> A              
     e( 35 - 35) =      8.51261  eV     1   --> A              
     e( 36 - 38) =      8.57853  eV     3   -->   3 A              

 **************************************************************************

 **************************************************************************

                    xk=(   0.39773,  -0.22963,   0.32474  )

     Band symmetry, C_1 (1)     point group:

     e(  1 -  1) =     -5.86264  eV     1   --> A              
     e(  2 -  2) =     -4.96028  eV     1   --> A              
     e(  3 -  6) =     -4.44385  eV     4   -->   4 A              
     e(  7 - 10) =     -2.14738  eV     4   -->   4 A              
     e( 11 - 14) =     -0.07238  eV     4   -->   4 A              
     e( 15 - 15) =      1.23258  eV     1   --> A              
     e( 16 - 19) =      2.06090  eV     4   -->   4 A              
     e( 20 - 23) =      2.38401  eV     4   -->   4 A              
     e( 24 - 24) =      3.15777  eV     1   --> A              
     e( 25 - 26) =      3.60714  eV     2   -->   2 A              
     e( 27 - 28) =      4.39923  eV     2   -->   2 A              
     e( 29 - 32) =      4.55589  eV     4   -->   4 A              
     e( 33 - 33) =      6.95689  eV     1   --> A              
     e( 34 - 34) =      7.56741  eV     1   --> A              
     e( 35 - 38) =      8.57943  eV     4   -->   4 A              

 **************************************************************************

 **************************************************************************

                    xk=(   0.40909,  -0.23619,   0.33402  )

     Band symmetry, C_1 (1)     point group:

     e(  1 -  1) =     -5.82180  eV     1   --> A              
     e(  2 -  2) =     -5.01949  eV     1   --> A              
     e(  3 -  6) =     -4.44876  eV     4   -->   4 A              
     e(  7 - 10) =     -2.14397  eV     4   -->   4 A              
     e( 11 - 14) =     -0.02883  eV     4   -->   4 A              
     e( 15 - 15) =      1.33925  eV     1   --> A              
     e( 16 - 19) =      2.04434  eV     4   -->   4 A              
     e( 20 - 23) =      2.32547  eV     4   -->   4 A              
     e( 24 - 24) =      3.05144  eV     1   --> A              
     e( 25 - 26) =      3.64373  eV     2   -->   2 A              
     e( 27 - 28) =      4.34855  eV     2   -->   2 A              
     e( 29 - 32) =      4.55342  eV     4   -->   4 A              
     e( 33 - 33) =      6.98310  eV     1   --> A              
     e( 34 - 34) =      7.52732  eV     1   --> A              
     e( 35 - 38) =      8.57990  eV     4   -->   4 A              

 **************************************************************************

 **************************************************************************

                    xk=(   0.42045,  -0.24275,   0.34330  )

     Band symmetry, C_1 (1)     point group:

     e(  1 -  1) =     -5.77983  eV     1   --> A              
     e(  2 -  2) =     -5.07767  eV     1   --> A              
     e(  3 -  6) =     -4.45313  eV     4   -->   4 A              
     e(  7 - 10) =     -2.14091  eV     4   -->   4 A              
     e( 11 - 14) =      0.01175  eV     4   -->   4 A              
     e( 15 - 15) =      1.44605  eV     1   --> A              
     e( 16 - 19) =      2.02960  eV     4   -->   4 A              
     e( 20 - 23) =      2.27163  eV     4   -->   4 A              
     e( 24 - 24) =      2.94492  eV     1   --> A              
     e( 25 - 26) =      3.68126  eV     2   -->   2 A              
     e( 27 - 28) =      4.29855  eV     2   -->   2 A              
     e( 29 - 32) =      4.55120  eV     4   -->   4 A              
     e( 33 - 33) =      7.01036  eV     1   --> A              
     e( 34 - 34) =      7.48773  eV     1   --> A              
     e( 35 - 38) =      8.58002  eV     4   -->   4 A              

 **************************************************************************

 **************************************************************************

                    xk=(   0.43182,  -0.24931,   0.35258  )

     Band symmetry, C_1 (1)     point group:

     e(  1 -  1) =     -5.73676  eV     1   --> A              
     e(  2 -  2) =     -5.13480  eV     1   --> A              
     e(  3 -  6) =     -4.45695  eV     4   -->   4 A              
     e(  7 - 10) =     -2.13822  eV     4   -->   4 A              
     e( 11 - 14) =      0.04876  eV     4   -->   4 A              
     e( 15 - 15) =      1.55297  eV     1   --> A              
     e( 16 - 19) =      2.01672  eV     4   -->   4 A              
     e( 20 - 23) =      2.22311  eV     4   -->   4 A              
     e( 24 - 24) =      2.83822  eV     1   --> A              
     e( 25 - 26) =      3.71972  eV     2   -->   2 A              
     e( 27 - 28) =      4.24925  eV     2   -->   2 A              
     e( 29 - 32) =      4.54927  eV     4   -->   4 A              
     e( 33 - 33) =      7.03866  eV     1   --> A              
     e( 34 - 34) =      7.44870  eV     1   --> A              
     e( 35 - 38) =      8.57990  eV     4   -->   4 A              

 **************************************************************************

 **************************************************************************

                    xk=(   0.44318,  -0.25587,   0.36186  )

     Band symmetry, C_1 (1)     point group:

     e(  1 -  1) =     -5.69259  eV     1   --> A              
     e(  2 -  2) =     -5.19087  eV     1   --> A              
     e(  3 -  6) =     -4.46020  eV     4   -->   4 A              
     e(  7 - 10) =     -2.13590  eV     4   -->   4 A              
     e( 11 - 14) =      0.08158  eV     4   -->   4 A              
     e( 15 - 15) =      1.65998  eV     1   --> A              
     e( 16 - 19) =      2.00578  eV     4   -->   4 A              
     e( 20 - 23) =      2.18053  eV     4   -->   4 A              
     e( 24 - 24) =      2.73137  eV     1   --> A              
     e( 25 - 26) =      3.75910  eV     2   -->   2 A              
     e( 27 - 28) =      4.20067  eV     2   -->   2 A              
     e( 29 - 32) =      4.54762  eV     4   -->   4 A              
     e( 33 - 33) =      7.06797  eV     1   --> A              
     e( 34 - 34) =      7.41028  eV     1   --> A              
     e( 35 - 38) =      8.57964  eV     4   -->   4 A              

 **************************************************************************

 **************************************************************************

                    xk=(   0.45455,  -0.26243,   0.37113  )

     Band symmetry, C_1 (1)     point group:

     e(  1 -  1) =     -5.64731  eV     1   --> A              
     e(  2 -  2) =     -5.24588  eV     1   --> A              
     e(  3 -  6) =     -4.46287  eV     4   -->   4 A              
     e(  7 - 10) =     -2.13399  eV     4   -->   4 A              
     e( 11 - 14) =      0.10956  eV     4   -->   4 A              
     e( 15 - 15) =      1.76707  eV     1   --> A              
     e( 16 - 19) =      1.99677  eV     4   -->   4 A              
     e( 20 - 23) =      2.14455  eV     4   -->   4 A              
     e( 24 - 24) =      2.62441  eV     1   --> A              
     e( 25 - 26) =      3.79939  eV     2   -->   2 A              
     e( 27 - 28) =      4.15283  eV     2   -->   2 A              
     e( 29 - 32) =      4.54625  eV     4   -->   4 A              
     e( 33 - 33) =      7.09826  eV     1   --> A              
     e( 34 - 34) =      7.37251  eV     1   --> A              
     e( 35 - 38) =      8.57931  eV     4   -->   4 A              

 **************************************************************************

 **************************************************************************

                    xk=(   0.46591,  -0.26899,   0.38041  )

     Band symmetry, C_1 (1)     point group:

     e(  1 -  1) =     -5.60093  eV     1   --> A              
     e(  2 -  2) =     -5.29983  eV     1   --> A              
     e(  3 -  6) =     -4.46495  eV     4   -->   4 A              
     e(  7 - 10) =     -2.13249  eV     4   -->   4 A              
     e( 11 - 14) =      0.13210  eV     4   -->   4 A              
     e( 15 - 15) =      1.87423  eV     1   --> A              
     e( 16 - 19) =      1.98974  eV     4   -->   4 A              
     e( 20 - 23) =      2.11579  eV     4   -->   4 A              
     e( 24 - 24) =      2.51735  eV     1   --> A              
     e( 25 - 26) =      3.84057  eV     2   -->   2 A              
     e( 27 - 28) =      4.10577  eV     2   -->   2 A              
     e( 29 - 32) =      4.54518  eV     4   -->   4 A              
     e( 33 - 33) =      7.12951  eV     1   --> A              
     e( 34 - 34) =      7.33543  eV     1   --> A              
     e( 35 - 38) =      8.57898  eV     4   -->   4 A              

 **************************************************************************

 **************************************************************************

                    xk=(   0.47727,  -0.27555,   0.38969  )

     Band symmetry, C_1 (1)     point group:

     e(  1 -  1) =     -5.55346  eV     1   --> A              
     e(  2 -  2) =     -5.35271  eV     1   --> A              
     e(  3 -  6) =     -4.46644  eV     4   -->   4 A              
     e(  7 - 10) =     -2.13141  eV     4   -->   4 A              
     e( 11 - 14) =      0.14867  eV     4   -->   4 A              
     e( 15 - 15) =      1.98144  eV     1   --> A              
     e( 16 - 19) =      1.98470  eV     4   -->   4 A              
     e( 20 - 23) =      2.09479  eV     4   -->   4 A              
     e( 24 - 24) =      2.41021  eV     1   --> A              
     e( 25 - 26) =      3.88264  eV     2   -->   2 A              
     e( 27 - 28) =      4.05949  eV     2   -->   2 A              
     e( 29 - 32) =      4.54442  eV     4   -->   4 A              
     e( 33 - 33) =      7.16168  eV     1   --> A              
     e( 34 - 34) =      7.29908  eV     1   --> A              
     e( 35 - 38) =      8.57872  eV     4   -->   4 A              

 **************************************************************************

 **************************************************************************

                    xk=(   0.48864,  -0.28211,   0.39897  )

     Band symmetry, C_1 (1)     point group:

     e(  1 -  1) =     -5.50490  eV     1   --> A              
     e(  2 -  2) =     -5.40452  eV     1   --> A              
     e(  3 -  6) =     -4.46734  eV     4   -->   4 A              
     e(  7 - 10) =     -2.13076  eV     4   -->   4 A              
     e( 11 - 14) =      0.15879  eV     4   -->   4 A              
     e( 15 - 18) =      1.98168  eV     4   -->   4 A              
     e( 19 - 22) =      2.08200  eV     4   -->   4 A              
     e( 23 - 23) =      2.08853  eV     1   --> A              
     e( 24 - 24) =      2.30303  eV     1   --> A              
     e( 25 - 26) =      3.92558  eV     2   -->   2 A              
     e( 27 - 28) =      4.01402  eV     2   -->   2 A              
     e( 29 - 32) =      4.54400  eV     4   -->   4 A              
     e( 33 - 33) =      7.19470  eV     1   --> A              
     e( 34 - 34) =      7.26350  eV     1   --> A              
     e( 35 - 38) =      8.57861  eV     4   -->   4 A              

 **************************************************************************

 **************************************************************************

                    xk=(   0.50000,  -0.28868,   0.40825  )

     Band symmetry, C_1 (1)     point group:

     e(  1 -  2) =     -5.45526  eV     2   -->   2 A              
     e(  3 -  6) =     -4.46764  eV     4   -->   4 A              
     e(  7 - 10) =     -2.13054  eV     4   -->   4 A              
     e( 11 - 14) =      0.16220  eV     4   -->   4 A              
     e( 15 - 18) =      1.98067  eV     4   -->   4 A              
     e( 19 - 22) =      2.07771  eV     4   -->   4 A              
     e( 23 - 24) =      2.19580  eV     2   -->   2 A              
     e( 25 - 28) =      3.96938  eV     4   -->   4 A              
     e( 29 - 32) =      4.54384  eV     4   -->   4 A              
     e( 33 - 34) =      7.22860  eV     2   -->   2 A              
     e( 35 - 38) =      8.57862  eV     4   -->   4 A              

 **************************************************************************

 **************************************************************************

                    xk=(   0.50833,  -0.27424,   0.40825  )

     Band symmetry, C_1 (1)     point group:

     e(  1 -  2) =     -5.45468  eV     2   -->   2 A              
     e(  3 -  3) =     -4.53050  eV     1   --> A              
     e(  4 -  5) =     -4.46699  eV     2   -->   2 A              
     e(  6 -  6) =     -4.40437  eV     1   --> A              
     e(  7 -  8) =     -2.18734  eV     2   -->   2 A              
     e(  9 - 10) =     -2.07403  eV     2   -->   2 A              
     e( 11 - 11) =      0.08234  eV     1   --> A              
     e( 12 - 13) =      0.16186  eV     2   -->   2 A              
     e( 14 - 14) =      0.24328  eV     1   --> A              
     e( 15 - 16) =      1.94034  eV     2   -->   2 A              
     e( 17 - 19) =      2.02319  eV     3   -->   3 A              
     e( 20 - 21) =      2.07818  eV     2   -->   2 A              
     e( 22 - 22) =      2.13381  eV     1   --> A              
     e( 23 - 24) =      2.19335  eV     2   -->   2 A              
     e( 25 - 26) =      3.96808  eV     2   -->   2 A              
     e( 27 - 28) =      3.96975  eV     2   -->   2 A              
     e( 29 - 29) =      4.50086  eV     1   --> A              
     e( 30 - 31) =      4.53983  eV     2   -->   2 A              
     e( 32 - 32) =      4.58680  eV     1   --> A              
     e( 33 - 34) =      7.23253  eV     2   -->   2 A              
     e( 35 - 35) =      8.53604  eV     1   --> A              
     e( 36 - 37) =      8.58461  eV     2   -->   2 A              
     e( 38 - 38) =      8.62043  eV     1   --> A              

 **************************************************************************

 **************************************************************************

                    xk=(   0.51667,  -0.25981,   0.40825  )

     Band symmetry, C_1 (1)     point group:

     e(  1 -  2) =     -5.45297  eV     2   -->   2 A              
     e(  3 -  3) =     -4.59288  eV     1   --> A              
     e(  4 -  5) =     -4.46507  eV     2   -->   2 A              
     e(  6 -  6) =     -4.34075  eV     1   --> A              
     e(  7 -  8) =     -2.24432  eV     2   -->   2 A              
     e(  9 - 10) =     -2.01794  eV     2   -->   2 A              
     e( 11 - 11) =      0.00373  eV     1   --> A              
     e( 12 - 13) =      0.16085  eV     2   -->   2 A              
     e( 14 - 14) =      0.32565  eV     1   --> A              
     e( 15 - 16) =      1.90235  eV     2   -->   2 A              
     e( 17 - 17) =      1.97067  eV     1   --> A              
     e( 18 - 19) =      2.06773  eV     2   -->   2 A              
     e( 20 - 21) =      2.07961  eV     2   -->   2 A              
     e( 22 - 23) =      2.18588  eV     2   -->   2 A              
     e( 24 - 24) =      2.19157  eV     1   --> A              
     e( 25 - 26) =      3.96422  eV     2   -->   2 A              
     e( 27 - 28) =      3.97090  eV     2   -->   2 A              
     e( 29 - 29) =      4.45788  eV     1   --> A              
     e( 30 - 31) =      4.52785  eV     2   -->   2 A              
     e( 32 - 32) =      4.62970  eV     1   --> A              
     e( 33 - 34) =      7.24404  eV     2   -->   2 A              
     e( 35 - 35) =      8.49279  eV     1   --> A              
     e( 36 - 37) =      8.60248  eV     2   -->   2 A              
     e( 38 - 38) =      8.66135  eV     1   --> A              

 **************************************************************************

 **************************************************************************

                    xk=(   0.52500,  -0.24537,   0.40825  )

     Band symmetry, C_1 (1)     point group:

     e(  1 -  2) =     -5.45013  eV     2   -->   2 A              
     e(  3 -  3) =     -4.65476  eV     1   --> A              
     e(  4 -  5) =     -4.46187  eV     2   -->   2 A              
     e(  6 -  6) =     -4.27682  eV     1   --> A              
     e(  7 -  8) =     -2.30136  eV     2   -->   2 A              
     e(  9 - 10) =     -1.96241  eV     2   -->   2 A              
     e( 11 - 11) =     -0.07361  eV     1   --> A              
     e( 12 - 13) =      0.15916  eV     2   -->   2 A              
     e( 14 - 14) =      0.40925  eV     1   --> A              
     e( 15 - 16) =      1.86683  eV     2   -->   2 A              
     e( 17 - 17) =      1.91988  eV     1   --> A              
     e( 18 - 19) =      2.08201  eV     2   -->   2 A              
     e( 20 - 21) =      2.11419  eV     2   -->   2 A              
     e( 22 - 23) =      2.17342  eV     2   -->   2 A              
     e( 24 - 24) =      2.25093  eV     1   --> A              
     e( 25 - 26) =      3.95800  eV     2   -->   2 A              
     e( 27 - 28) =      3.97284  eV     2   -->   2 A              
     e( 29 - 29) =      4.41498  eV     1   --> A              
     e( 30 - 31) =      4.50821  eV     2   -->   2 A              
     e( 32 - 32) =      4.67242  eV     1   --> A              
     e( 33 - 34) =      7.26291  eV     2   -->   2 A              
     e( 35 - 35) =      8.44901  eV     1   --> A              
     e( 36 - 37) =      8.63209  eV     2   -->   2 A              
     e( 38 - 38) =      8.70125  eV     1   --> A              

 **************************************************************************

 **************************************************************************

                    xk=(   0.53333,  -0.23094,   0.40825  )

     Band symmetry, C_1 (1)     point group:

     e(  1 -  2) =     -5.44615  eV     2   -->   2 A              
     e(  3 -  3) =     -4.71608  eV     1   --> A              
     e(  4 -  5) =     -4.45738  eV     2   -->   2 A              
     e(  6 -  6) =     -4.21265  eV     1   --> A              
     e(  7 -  8) =     -2.35837  eV     2   -->   2 A              
     e(  9 - 10) =     -1.90757  eV     2   -->   2 A              
     e( 11 - 11) =     -0.14967  eV     1   --> A              
     e( 12 - 13) =      0.15675  eV     2   -->   2 A              
     e( 14 - 14) =      0.49409  eV     1   --> A              
     e( 15 - 16) =      1.83397  eV     2   -->   2 A              
     e( 17 - 17) =      1.87098  eV     1   --> A              
     e( 18 - 19) =      2.08535  eV     2   -->   2 A              
     e( 20 - 21) =      2.15594  eV     2   -->   2 A              
     e( 22 - 23) =      2.16243  eV     2   -->   2 A              
     e( 24 - 24) =      2.31182  eV     1   --> A              
     e( 25 - 26) =      3.94974  eV     2   -->   2 A              
     e( 27 - 28) =      3.97554  eV     2   -->   2 A              
     e( 29 - 29) =      4.37218  eV     1   --> A              
     e( 30 - 31) =      4.48127  eV     2   -->   2 A              
     e( 32 - 32) =      4.71504  eV     1   --> A              
     e( 33 - 34) =      7.28876  eV     2   -->   2 A              
     e( 35 - 35) =      8.40479  eV     1   --> A              
     e( 36 - 37) =      8.67301  eV     2   -->   2 A              
     e( 38 - 38) =      8.74002  eV     1   --> A              

 **************************************************************************

 **************************************************************************

                    xk=(   0.54167,  -0.21651,   0.40825  )

     Band symmetry, C_1 (1)     point group:

     e(  1 -  2) =     -5.44103  eV     2   -->   2 A              
     e(  3 -  3) =     -4.77680  eV     1   --> A              
     e(  4 -  5) =     -4.45161  eV     2   -->   2 A              
     e(  6 -  6) =     -4.14831  eV     1   --> A              
     e(  7 -  8) =     -2.41525  eV     2   -->   2 A              
     e(  9 - 10) =     -1.85359  eV     2   -->   2 A              
     e( 11 - 11) =     -0.22446  eV     1   --> A              
     e( 12 - 13) =      0.15362  eV     2   -->   2 A              
     e( 14 - 14) =      0.58015  eV     1   --> A              
     e( 15 - 16) =      1.80389  eV     2   -->   2 A              
     e( 17 - 17) =      1.82405  eV     1   --> A              
     e( 18 - 19) =      2.08964  eV     2   -->   2 A              
     e( 20 - 21) =      2.13346  eV     2   -->   2 A              
     e( 22 - 23) =      2.21232  eV     2   -->   2 A              
     e( 24 - 24) =      2.37420  eV     1   --> A              
     e( 25 - 26) =      3.93984  eV     2   -->   2 A              
     e( 27 - 28) =      3.97899  eV     2   -->   2 A              
     e( 29 - 29) =      4.32953  eV     1   --> A              
     e( 30 - 31) =      4.44754  eV     2   -->   2 A              
     e( 32 - 32) =      4.75746  eV     1   --> A              
     e( 33 - 34) =      7.32106  eV     2   -->   2 A              
     e( 35 - 35) =      8.36023  eV     1   --> A              
     e( 36 - 37) =      8.72474  eV     2   -->   2 A              
     e( 38 - 38) =      8.77751  eV     1   --> A              

 **************************************************************************

 **************************************************************************

                    xk=(   0.55000,  -0.20207,   0.40825  )

     Band symmetry, C_1 (1)     point group:

     e(  1 -  2) =     -5.43478  eV     2   -->   2 A              
     e(  3 -  3) =     -4.83688  eV     1   --> A              
     e(  4 -  5) =     -4.44457  eV     2   -->   2 A              
     e(  6 -  6) =     -4.08386  eV     1   --> A              
     e(  7 -  8) =     -2.47191  eV     2   -->   2 A              
     e(  9 - 10) =     -1.80060  eV     2   -->   2 A              
     e( 11 - 11) =     -0.29795  eV     1   --> A              
     e( 12 - 13) =      0.14973  eV     2   -->   2 A              
     e( 14 - 14) =      0.66744  eV     1   --> A              
     e( 15 - 16) =      1.77682  eV     2   -->   2 A              
     e( 17 - 17) =      1.77912  eV     1   --> A              
     e( 18 - 19) =      2.09488  eV     2   -->   2 A              
     e( 20 - 21) =      2.10595  eV     2   -->   2 A              
     e( 22 - 23) =      2.26378  eV     2   -->   2 A              
     e( 24 - 24) =      2.43801  eV     1   --> A              
     e( 25 - 26) =      3.92876  eV     2   -->   2 A              
     e( 27 - 28) =      3.98320  eV     2   -->   2 A              
     e( 29 - 29) =      4.28708  eV     1   --> A              
     e( 30 - 31) =      4.40763  eV     2   -->   2 A              
     e( 32 - 32) =      4.79962  eV     1   --> A              
     e( 33 - 34) =      7.35917  eV     2   -->   2 A              
     e( 35 - 35) =      8.31542  eV     1   --> A              
     e( 36 - 37) =      8.78672  eV     2   -->   2 A              
     e( 38 - 38) =      8.81361  eV     1   --> A              

 **************************************************************************

 **************************************************************************

                    xk=(   0.55833,  -0.18764,   0.40825  )

     Band symmetry, C_1 (1)     point group:

     e(  1 -  2) =     -5.42741  eV     2   -->   2 A              
     e(  3 -  3) =     -4.89629  eV     1   --> A              
     e(  4 -  5) =     -4.43624  eV     2   -->   2 A              
     e(  6 -  6) =     -4.01936  eV     1   --> A              
     e(  7 -  8) =     -2.52829  eV     2   -->   2 A              
     e(  9 - 10) =     -1.74879  eV     2   -->   2 A              
     e( 11 - 11) =     -0.37017  eV     1   --> A              
     e( 12 - 13) =      0.14502  eV     2   -->   2 A              
     e( 14 - 14) =      0.75595  eV     1   --> A              
     e( 15 - 15) =      1.73637  eV     1   --> A              
     e( 16 - 17) =      1.75292  eV     2   -->   2 A              
     e( 18 - 19) =      2.07347  eV     2   -->   2 A              
     e( 20 - 21) =      2.10103  eV     2   -->   2 A              
     e( 22 - 23) =      2.31665  eV     2   -->   2 A              
     e( 24 - 24) =      2.50318  eV     1   --> A              
     e( 25 - 26) =      3.91700  eV     2   -->   2 A              
     e( 27 - 28) =      3.98817  eV     2   -->   2 A              
     e( 29 - 29) =      4.24483  eV     1   --> A              
     e( 30 - 31) =      4.36219  eV     2   -->   2 A              
     e( 32 - 32) =      4.84149  eV     1   --> A              
     e( 33 - 34) =      7.40237  eV     2   -->   2 A              
     e( 35 - 35) =      8.27047  eV     1   --> A              
     e( 36 - 36) =      8.84825  eV     1   --> A              
     e( 37 - 38) =      8.85826  eV     2   -->   2 A              

 **************************************************************************

 **************************************************************************

                    xk=(   0.56667,  -0.17321,   0.40825  )

     Band symmetry, C_1 (1)     point group:

     e(  1 -  2) =     -5.41891  eV     2   -->   2 A              
     e(  3 -  3) =     -4.95498  eV     1   --> A              
     e(  4 -  5) =     -4.42663  eV     2   -->   2 A              
     e(  6 -  6) =     -3.95490  eV     1   --> A              
     e(  7 -  8) =     -2.58430  eV     2   -->   2 A              
     e(  9 - 10) =     -1.69832  eV     2   -->   2 A              
     e( 11 - 11) =     -0.44111  eV     1   --> A              
     e( 12 - 13) =      0.13947  eV     2   -->   2 A              
     e( 14 - 14) =      0.84566  eV     1   --> A              
     e( 15 - 15) =      1.69577  eV     1   --> A              
     e( 16 - 17) =      1.73236  eV     2   -->   2 A              
     e( 18 - 19) =      2.03604  eV     2   -->   2 A              
     e( 20 - 21) =      2.10816  eV     2   -->   2 A              
     e( 22 - 23) =      2.37083  eV     2   -->   2 A              
     e( 24 - 24) =      2.56969  eV     1   --> A              
     e( 25 - 26) =      3.90506  eV     2   -->   2 A              
     e( 27 - 28) =      3.99389  eV     2   -->   2 A              
     e( 29 - 29) =      4.20285  eV     1   --> A              
     e( 30 - 31) =      4.31193  eV     2   -->   2 A              
     e( 32 - 32) =      4.88301  eV     1   --> A              
     e( 33 - 34) =      7.44986  eV     2   -->   2 A              
     e( 35 - 35) =      8.22546  eV     1   --> A              
     e( 36 - 36) =      8.88116  eV     1   --> A              
     e( 37 - 38) =      8.93885  eV     2   -->   2 A              

 **************************************************************************

 **************************************************************************

                    xk=(   0.57500,  -0.15877,   0.40825  )

     Band symmetry, C_1 (1)     point group:

     e(  1 -  2) =     -5.40930  eV     2   -->   2 A              
     e(  3 -  3) =     -5.01293  eV     1   --> A              
     e(  4 -  5) =     -4.41575  eV     2   -->   2 A              
     e(  6 -  6) =     -3.89056  eV     1   --> A              
     e(  7 -  8) =     -2.63987  eV     2   -->   2 A              
     e(  9 - 10) =     -1.64937  eV     2   -->   2 A              
     e( 11 - 11) =     -0.51075  eV     1   --> A              
     e( 12 - 13) =      0.13299  eV     2   -->   2 A              
     e( 14 - 14) =      0.93657  eV     1   --> A              
     e( 15 - 15) =      1.65743  eV     1   --> A              
     e( 16 - 17) =      1.71533  eV     2   -->   2 A              
     e( 18 - 19) =      1.99379  eV     2   -->   2 A              
     e( 20 - 21) =      2.11618  eV     2   -->   2 A              
     e( 22 - 23) =      2.42622  eV     2   -->   2 A              
     e( 24 - 24) =      2.63748  eV     1   --> A              
     e( 25 - 26) =      3.89340  eV     2   -->   2 A              
     e( 27 - 28) =      4.00034  eV     2   -->   2 A              
     e( 29 - 29) =      4.16116  eV     1   --> A              
     e( 30 - 31) =      4.25754  eV     2   -->   2 A              
     e( 32 - 32) =      4.92414  eV     1   --> A              
     e( 33 - 34) =      7.50090  eV     2   -->   2 A              
     e( 35 - 35) =      8.18046  eV     1   --> A              
     e( 36 - 36) =      8.91232  eV     1   --> A              
     e( 37 - 38) =      9.02771  eV     2   -->   2 A              

 **************************************************************************

 **************************************************************************

                    xk=(   0.58333,  -0.14434,   0.40825  )

     Band symmetry, C_1 (1)     point group:

     e(  1 -  2) =     -5.39857  eV     2   -->   2 A              
     e(  3 -  3) =     -5.07010  eV     1   --> A              
     e(  4 -  5) =     -4.40359  eV     2   -->   2 A              
     e(  6 -  6) =     -3.82641  eV     1   --> A              
     e(  7 -  8) =     -2.69495  eV     2   -->   2 A              
     e(  9 - 10) =     -1.60211  eV     2   -->   2 A              
     e( 11 - 11) =     -0.57909  eV     1   --> A              
     e( 12 - 13) =      0.12552  eV     2   -->   2 A              
     e( 14 - 14) =      1.02866  eV     1   --> A              
     e( 15 - 15) =      1.62143  eV     1   --> A              
     e( 16 - 17) =      1.70202  eV     2   -->   2 A              
     e( 18 - 19) =      1.94676  eV     2   -->   2 A              
     e( 20 - 21) =      2.12512  eV     2   -->   2 A              
     e( 22 - 23) =      2.48272  eV     2   -->   2 A              
     e( 24 - 24) =      2.70648  eV     1   --> A              
     e( 25 - 26) =      3.88245  eV     2   -->   2 A              
     e( 27 - 28) =      4.00751  eV     2   -->   2 A              
     e( 29 - 29) =      4.11981  eV     1   --> A              
     e( 30 - 31) =      4.19969  eV     2   -->   2 A              
     e( 32 - 32) =      4.96482  eV     1   --> A              
     e( 33 - 34) =      7.55448  eV     2   -->   2 A              
     e( 35 - 35) =      8.13555  eV     1   --> A              
     e( 36 - 36) =      8.94161  eV     1   --> A              
     e( 37 - 38) =      9.12415  eV     2   -->   2 A              

 **************************************************************************

 **************************************************************************

                    xk=(   0.59167,  -0.12990,   0.40825  )

     Band symmetry, C_1 (1)     point group:

     e(  1 -  2) =     -5.38674  eV     2   -->   2 A              
     e(  3 -  3) =     -5.12647  eV     1   --> A              
     e(  4 -  5) =     -4.39016  eV     2   -->   2 A              
     e(  6 -  6) =     -3.76255  eV     1   --> A              
     e(  7 -  8) =     -2.74947  eV     2   -->   2 A              
     e(  9 - 10) =     -1.55672  eV     2   -->   2 A              
     e( 11 - 11) =     -0.64613  eV     1   --> A              
     e( 12 - 13) =      0.11701  eV     2   -->   2 A              
     e( 14 - 14) =      1.12194  eV     1   --> A              
     e( 15 - 15) =      1.58785  eV     1   --> A              
     e( 16 - 17) =      1.69260  eV     2   -->   2 A              
     e( 18 - 19) =      1.89516  eV     2   -->   2 A              
     e( 20 - 21) =      2.13496  eV     2   -->   2 A              
     e( 22 - 23) =      2.54023  eV     2   -->   2 A              
     e( 24 - 24) =      2.77665  eV     1   --> A              
     e( 25 - 26) =      3.87259  eV     2   -->   2 A              
     e( 27 - 28) =      4.01541  eV     2   -->   2 A              
     e( 29 - 29) =      4.07882  eV     1   --> A              
     e( 30 - 31) =      4.13912  eV     2   -->   2 A              
     e( 32 - 32) =      5.00502  eV     1   --> A              
     e( 33 - 34) =      7.60996  eV     2   -->   2 A              
     e( 35 - 35) =      8.09080  eV     1   --> A              
     e( 36 - 36) =      8.96892  eV     1   --> A              
     e( 37 - 38) =      9.22775  eV     2   -->   2 A              

 **************************************************************************

 **************************************************************************

[...]

 **************************************************************************

                    xk=(   0.50000,  -0.12372,   0.52489  )

     Band symmetry, C_1 (1)     point group:

     e(  1 -  2) =     -5.37179  eV     2   -->   2 A              
     e(  3 -  4) =     -4.94147  eV     2   -->   2 A              
     e(  5 -  6) =     -3.87052  eV     2   -->   2 A              
     e(  7 -  8) =     -2.83396  eV     2   -->   2 A              
     e(  9 - 10) =     -1.46526  eV     2   -->   2 A              
     e( 11 - 12) =     -0.50633  eV     2   -->   2 A              
     e( 13 - 14) =      0.86968  eV     2   -->   2 A              
     e( 15 - 16) =      1.64149  eV     2   -->   2 A              
     e( 17 - 18) =      1.71097  eV     2   -->   2 A              
     e( 19 - 20) =      1.88035  eV     2   -->   2 A              
     e( 21 - 22) =      2.63163  eV     2   -->   2 A              
     e( 23 - 24) =      2.63856  eV     2   -->   2 A              
     e( 25 - 26) =      3.62987  eV     2   -->   2 A              
     e( 27 - 28) =      3.91936  eV     2   -->   2 A              
     e( 29 - 30) =      4.18078  eV     2   -->   2 A              
     e( 31 - 32) =      4.63526  eV     2   -->   2 A              
     e( 33 - 34) =      7.73851  eV     2   -->   2 A              
     e( 35 - 36) =      8.60999  eV     2   -->   2 A              
     e( 37 - 38) =      9.30871  eV     2   -->   2 A              

 **************************************************************************

 **************************************************************************

                    xk=(   0.50000,  -0.13746,   0.51517  )

     Band symmetry, C_1 (1)     point group:

     e(  1 -  2) =     -5.38509  eV     2   -->   2 A              
     e(  3 -  4) =     -4.90736  eV     2   -->   2 A              
     e(  5 -  6) =     -3.92415  eV     2   -->   2 A              
     e(  7 -  8) =     -2.77457  eV     2   -->   2 A              
     e(  9 - 10) =     -1.51919  eV     2   -->   2 A              
     e( 11 - 12) =     -0.45213  eV     2   -->   2 A              
     e( 13 - 14) =      0.80982  eV     2   -->   2 A              
     e( 15 - 16) =      1.65731  eV     2   -->   2 A              
     e( 17 - 18) =      1.73275  eV     2   -->   2 A              
     e( 19 - 20) =      1.92539  eV     2   -->   2 A              
     e( 21 - 22) =      2.56719  eV     2   -->   2 A              
     e( 23 - 24) =      2.58604  eV     2   -->   2 A              
     e( 25 - 26) =      3.67776  eV     2   -->   2 A              
     e( 27 - 28) =      3.98674  eV     2   -->   2 A              
     e( 29 - 30) =      4.15226  eV     2   -->   2 A              
     e( 31 - 32) =      4.64605  eV     2   -->   2 A              
     e( 33 - 34) =      7.66352  eV     2   -->   2 A              
     e( 35 - 36) =      8.58016  eV     2   -->   2 A              
     e( 37 - 38) =      9.22474  eV     2   -->   2 A              

 **************************************************************************

 **************************************************************************

                    xk=(   0.50000,  -0.15121,   0.50545  )

     Band symmetry, C_1 (1)     point group:

     e(  1 -  2) =     -5.39724  eV     2   -->   2 A              
     e(  3 -  4) =     -4.87223  eV     2   -->   2 A              
     e(  5 -  6) =     -3.97716  eV     2   -->   2 A              
     e(  7 -  8) =     -2.71524  eV     2   -->   2 A              
     e(  9 - 10) =     -1.57334  eV     2   -->   2 A              
     e( 11 - 12) =     -0.39769  eV     2   -->   2 A              
     e( 13 - 14) =      0.75001  eV     2   -->   2 A              
     e( 15 - 16) =      1.67536  eV     2   -->   2 A              
     e( 17 - 18) =      1.75623  eV     2   -->   2 A              
     e( 19 - 20) =      1.96795  eV     2   -->   2 A              
     e( 21 - 22) =      2.50435  eV     2   -->   2 A              
     e( 23 - 24) =      2.53439  eV     2   -->   2 A              
     e( 25 - 26) =      3.72331  eV     2   -->   2 A              
     e( 27 - 28) =      4.05217  eV     2   -->   2 A              
     e( 29 - 30) =      4.12476  eV     2   -->   2 A              
     e( 31 - 32) =      4.65407  eV     2   -->   2 A              
     e( 33 - 34) =      7.59323  eV     2   -->   2 A              
     e( 35 - 36) =      8.55467  eV     2   -->   2 A              
     e( 37 - 38) =      9.14389  eV     2   -->   2 A              

 **************************************************************************

 **************************************************************************

                    xk=(   0.50000,  -0.16496,   0.49573  )

     Band symmetry, C_1 (1)     point group:

     e(  1 -  2) =     -5.40824  eV     2   -->   2 A              
     e(  3 -  4) =     -4.83609  eV     2   -->   2 A              
     e(  5 -  6) =     -4.02952  eV     2   -->   2 A              
     e(  7 -  8) =     -2.65597  eV     2   -->   2 A              
     e(  9 - 10) =     -1.62775  eV     2   -->   2 A              
     e( 11 - 12) =     -0.34300  eV     2   -->   2 A              
     e( 13 - 14) =      0.69032  eV     2   -->   2 A              
     e( 15 - 16) =      1.69565  eV     2   -->   2 A              
     e( 17 - 18) =      1.78137  eV     2   -->   2 A              
     e( 19 - 20) =      2.00784  eV     2   -->   2 A              
     e( 21 - 22) =      2.44322  eV     2   -->   2 A              
     e( 23 - 24) =      2.48370  eV     2   -->   2 A              
     e( 25 - 26) =      3.76611  eV     2   -->   2 A              
     e( 27 - 28) =      4.09856  eV     2   -->   2 A              
     e( 29 - 30) =      4.11538  eV     2   -->   2 A              
     e( 31 - 32) =      4.65915  eV     2   -->   2 A              
     e( 33 - 34) =      7.52789  eV     2   -->   2 A              
     e( 35 - 36) =      8.53380  eV     2   -->   2 A              
     e( 37 - 38) =      9.06658  eV     2   -->   2 A              

 **************************************************************************

 **************************************************************************

                    xk=(   0.50000,  -0.17870,   0.48601  )

     Band symmetry, C_1 (1)     point group:

     e(  1 -  2) =     -5.41810  eV     2   -->   2 A              
     e(  3 -  4) =     -4.79896  eV     2   -->   2 A              
     e(  5 -  6) =     -4.08121  eV     2   -->   2 A              
     e(  7 -  8) =     -2.59680  eV     2   -->   2 A              
     e(  9 - 10) =     -1.68241  eV     2   -->   2 A              
     e( 11 - 12) =     -0.28804  eV     2   -->   2 A              
     e( 13 - 14) =      0.63076  eV     2   -->   2 A              
     e( 15 - 16) =      1.71821  eV     2   -->   2 A              
     e( 17 - 18) =      1.80813  eV     2   -->   2 A              
     e( 19 - 20) =      2.04472  eV     2   -->   2 A              
     e( 21 - 22) =      2.38386  eV     2   -->   2 A              
     e( 23 - 24) =      2.43401  eV     2   -->   2 A              
     e( 25 - 26) =      3.80581  eV     2   -->   2 A              
     e( 27 - 28) =      4.07396  eV     2   -->   2 A              
     e( 29 - 30) =      4.17609  eV     2   -->   2 A              
     e( 31 - 32) =      4.66109  eV     2   -->   2 A              
     e( 33 - 34) =      7.46807  eV     2   -->   2 A              
     e( 35 - 36) =      8.51757  eV     2   -->   2 A              
     e( 37 - 38) =      8.99314  eV     2   -->   2 A              

 **************************************************************************

 **************************************************************************

                    xk=(   0.50000,  -0.19245,   0.47629  )

     Band symmetry, C_1 (1)     point group:

     e(  1 -  2) =     -5.42680  eV     2   -->   2 A              
     e(  3 -  4) =     -4.76085  eV     2   -->   2 A              
     e(  5 -  6) =     -4.13219  eV     2   -->   2 A              
     e(  7 -  8) =     -2.53778  eV     2   -->   2 A              
     e(  9 - 10) =     -1.73736  eV     2   -->   2 A              
     e( 11 - 12) =     -0.23281  eV     2   -->   2 A              
     e( 13 - 14) =      0.57136  eV     2   -->   2 A              
     e( 15 - 16) =      1.74304  eV     2   -->   2 A              
     e( 17 - 18) =      1.83653  eV     2   -->   2 A              
     e( 19 - 20) =      2.07830  eV     2   -->   2 A              
     e( 21 - 22) =      2.32636  eV     2   -->   2 A              
     e( 23 - 24) =      2.38535  eV     2   -->   2 A              
     e( 25 - 26) =      3.84203  eV     2   -->   2 A              
     e( 27 - 28) =      4.05125  eV     2   -->   2 A              
     e( 29 - 30) =      4.23404  eV     2   -->   2 A              
     e( 31 - 32) =      4.65967  eV     2   -->   2 A              
     e( 33 - 34) =      7.41410  eV     2   -->   2 A              
     e( 35 - 36) =      8.50630  eV     2   -->   2 A              
     e( 37 - 38) =      8.92383  eV     2   -->   2 A              

 **************************************************************************

 **************************************************************************

                    xk=(   0.50000,  -0.20620,   0.46657  )

     Band symmetry, C_1 (1)     point group:

     e(  1 -  2) =     -5.43434  eV     2   -->   2 A              
     e(  3 -  4) =     -4.72177  eV     2   -->   2 A              
     e(  5 -  6) =     -4.18245  eV     2   -->   2 A              
     e(  7 -  8) =     -2.47892  eV     2   -->   2 A              
     e(  9 - 10) =     -1.79261  eV     2   -->   2 A              
     e( 11 - 12) =     -0.17727  eV     2   -->   2 A              
     e( 13 - 14) =      0.51216  eV     2   -->   2 A              
     e( 15 - 16) =      1.77015  eV     2   -->   2 A              
     e( 17 - 18) =      1.86650  eV     2   -->   2 A              
     e( 19 - 20) =      2.10824  eV     2   -->   2 A              
     e( 21 - 22) =      2.27078  eV     2   -->   2 A              
     e( 23 - 24) =      2.33780  eV     2   -->   2 A              
     e( 25 - 26) =      3.87441  eV     2   -->   2 A              
     e( 27 - 28) =      4.03075  eV     2   -->   2 A              
     e( 29 - 30) =      4.28902  eV     2   -->   2 A              
     e( 31 - 32) =      4.65476  eV     2   -->   2 A              
     e( 33 - 34) =      7.36633  eV     2   -->   2 A              
     e( 35 - 36) =      8.50023  eV     2   -->   2 A              
     e( 37 - 38) =      8.85910  eV     2   -->   2 A              

 **************************************************************************

 **************************************************************************

                    xk=(   0.50000,  -0.21994,   0.45685  )

     Band symmetry, C_1 (1)     point group:

     e(  1 -  2) =     -5.44073  eV     2   -->   2 A              
     e(  3 -  4) =     -4.68172  eV     2   -->   2 A              
     e(  5 -  6) =     -4.23197  eV     2   -->   2 A              
     e(  7 -  8) =     -2.42024  eV     2   -->   2 A              
     e(  9 - 10) =     -1.84815  eV     2   -->   2 A              
     e( 11 - 12) =     -0.12145  eV     2   -->   2 A              
     e( 13 - 14) =      0.45318  eV     2   -->   2 A              
     e( 15 - 16) =      1.79955  eV     2   -->   2 A              
     e( 17 - 18) =      1.89801  eV     2   -->   2 A              
     e( 19 - 20) =      2.13424  eV     2   -->   2 A              
     e( 21 - 22) =      2.21718  eV     2   -->   2 A              
     e( 23 - 24) =      2.29136  eV     2   -->   2 A              
     e( 25 - 26) =      3.90256  eV     2   -->   2 A              
     e( 27 - 28) =      4.01275  eV     2   -->   2 A              
     e( 29 - 30) =      4.34072  eV     2   -->   2 A              
     e( 31 - 32) =      4.64617  eV     2   -->   2 A              
     e( 33 - 34) =      7.32515  eV     2   -->   2 A              
     e( 35 - 36) =      8.49934  eV     2   -->   2 A              
     e( 37 - 38) =      8.79907  eV     2   -->   2 A              

 **************************************************************************

 **************************************************************************

                    xk=(   0.50000,  -0.23369,   0.44713  )

     Band symmetry, C_1 (1)     point group:

     e(  1 -  2) =     -5.44595  eV     2   -->   2 A              
     e(  3 -  4) =     -4.64074  eV     2   -->   2 A              
     e(  5 -  6) =     -4.28072  eV     2   -->   2 A              
     e(  7 -  8) =     -2.36179  eV     2   -->   2 A              
     e(  9 - 10) =     -1.90400  eV     2   -->   2 A              
     e( 11 - 12) =     -0.06534  eV     2   -->   2 A              
     e( 13 - 14) =      0.39444  eV     2   -->   2 A              
     e( 15 - 16) =      1.83123  eV     2   -->   2 A              
     e( 17 - 18) =      1.93103  eV     2   -->   2 A              
     e( 19 - 20) =      2.15600  eV     2   -->   2 A              
     e( 21 - 22) =      2.16562  eV     2   -->   2 A              
     e( 23 - 24) =      2.24612  eV     2   -->   2 A              
     e( 25 - 26) =      3.92614  eV     2   -->   2 A              
     e( 27 - 28) =      3.99755  eV     2   -->   2 A              
     e( 29 - 30) =      4.38895  eV     2   -->   2 A              
     e( 31 - 32) =      4.63375  eV     2   -->   2 A              
     e( 33 - 34) =      7.29091  eV     2   -->   2 A              
     e( 35 - 36) =      8.50381  eV     2   -->   2 A              
     e( 37 - 38) =      8.74414  eV     2   -->   2 A              

 **************************************************************************

 **************************************************************************

                    xk=(   0.50000,  -0.24744,   0.43741  )

     Band symmetry, C_1 (1)     point group:

     e(  1 -  2) =     -5.45002  eV     2   -->   2 A              
     e(  3 -  4) =     -4.59882  eV     2   -->   2 A              
     e(  5 -  6) =     -4.32868  eV     2   -->   2 A              
     e(  7 -  8) =     -2.30358  eV     2   -->   2 A              
     e(  9 - 10) =     -1.96017  eV     2   -->   2 A              
     e( 11 - 12) =     -0.00892  eV     2   -->   2 A              
     e( 13 - 14) =      0.33595  eV     2   -->   2 A              
     e( 15 - 16) =      1.86519  eV     2   -->   2 A              
     e( 17 - 18) =      1.96555  eV     2   -->   2 A              
     e( 19 - 20) =      2.11616  eV     2   -->   2 A              
     e( 21 - 22) =      2.17324  eV     2   -->   2 A              
     e( 23 - 24) =      2.20209  eV     2   -->   2 A              
     e( 25 - 26) =      3.94485  eV     2   -->   2 A              
     e( 27 - 28) =      3.98541  eV     2   -->   2 A              
     e( 29 - 30) =      4.43353  eV     2   -->   2 A              
     e( 31 - 32) =      4.61738  eV     2   -->   2 A              
     e( 33 - 34) =      7.26391  eV     2   -->   2 A              
     e( 35 - 36) =      8.51395  eV     2   -->   2 A              
     e( 37 - 38) =      8.69452  eV     2   -->   2 A              

 **************************************************************************

 **************************************************************************

                    xk=(   0.50000,  -0.26118,   0.42769  )

     Band symmetry, C_1 (1)     point group:

     e(  1 -  2) =     -5.45293  eV     2   -->   2 A              
     e(  3 -  4) =     -4.55599  eV     2   -->   2 A              
     e(  5 -  6) =     -4.37584  eV     2   -->   2 A              
     e(  7 -  8) =     -2.24562  eV     2   -->   2 A              
     e(  9 - 10) =     -2.01665  eV     2   -->   2 A              
     e( 11 - 12) =      0.04781  eV     2   -->   2 A              
     e( 13 - 14) =      0.27774  eV     2   -->   2 A              
     e( 15 - 16) =      1.90143  eV     2   -->   2 A              
     e( 17 - 18) =      2.00152  eV     2   -->   2 A              
     e( 19 - 20) =      2.06882  eV     2   -->   2 A              
     e( 21 - 22) =      2.15933  eV     2   -->   2 A              
     e( 23 - 24) =      2.18574  eV     2   -->   2 A              
     e( 25 - 26) =      3.95841  eV     2   -->   2 A              
     e( 27 - 28) =      3.97656  eV     2   -->   2 A              
     e( 29 - 30) =      4.47429  eV     2   -->   2 A              
     e( 31 - 32) =      4.59697  eV     2   -->   2 A              
     e( 33 - 34) =      7.24443  eV     2   -->   2 A              
     e( 35 - 36) =      8.52975  eV     2   -->   2 A              
     e( 37 - 38) =      8.65027  eV     2   -->   2 A              

 **************************************************************************

 **************************************************************************

                    xk=(   0.50000,  -0.27493,   0.41797  )

     Band symmetry, C_1 (1)     point group:

     e(  1 -  2) =     -5.45467  eV     2   -->   2 A              
     e(  3 -  4) =     -4.51225  eV     2   -->   2 A              
     e(  5 -  6) =     -4.42216  eV     2   -->   2 A              
     e(  7 -  8) =     -2.18794  eV     2   -->   2 A              
     e(  9 - 10) =     -2.07344  eV     2   -->   2 A              
     e( 11 - 12) =      0.10485  eV     2   -->   2 A              
     e( 13 - 14) =      0.21984  eV     2   -->   2 A              
     e( 15 - 16) =      1.93992  eV     2   -->   2 A              
     e( 17 - 18) =      2.02364  eV     2   -->   2 A              
     e( 19 - 20) =      2.03891  eV     2   -->   2 A              
     e( 21 - 22) =      2.11786  eV     2   -->   2 A              
     e( 23 - 24) =      2.19330  eV     2   -->   2 A              
     e( 25 - 26) =      3.96664  eV     2   -->   2 A              
     e( 27 - 28) =      3.97116  eV     2   -->   2 A              
     e( 29 - 30) =      4.51109  eV     2   -->   2 A              
     e( 31 - 32) =      4.57248  eV     2   -->   2 A              
     e( 33 - 34) =      7.23265  eV     2   -->   2 A              
     e( 35 - 36) =      8.55134  eV     2   -->   2 A              
     e( 37 - 38) =      8.61163  eV     2   -->   2 A              

 **************************************************************************

 **************************************************************************

                    xk=(   0.50000,  -0.28868,   0.40825  )

     Band symmetry, C_1 (1)     point group:

     e(  1 -  2) =     -5.45526  eV     2   -->   2 A              
     e(  3 -  6) =     -4.46764  eV     4   -->   4 A              
     e(  7 - 10) =     -2.13054  eV     4   -->   4 A              
     e( 11 - 14) =      0.16220  eV     4   -->   4 A              
     e( 15 - 18) =      1.98067  eV     4   -->   4 A              
     e( 19 - 22) =      2.07771  eV     4   -->   4 A              
     e( 23 - 24) =      2.19580  eV     2   -->   2 A              
     e( 25 - 28) =      3.96938  eV     4   -->   4 A              
     e( 29 - 32) =      4.54384  eV     4   -->   4 A              
     e( 33 - 34) =      7.22860  eV     2   -->   2 A              
     e( 35 - 38) =      8.57862  eV     4   -->   4 A              

 **************************************************************************

     BANDS        :     30.39s CPU     48.18s WALL


   This run was terminated on:  15:18:27   9Jun2025            

=------------------------------------------------------------------------------=
   JOB DONE.
=------------------------------------------------------------------------------=
