
     Program PWSCF v.7.4.1 starts on  9Jun2025 at  8:30:59 

     This program is part of the open-source Quantum ESPRESSO suite
     for quantum simulation of materials; please cite
         "P. Giannozzi et al., J. Phys.:Condens. Matter 21 395502 (2009);
         "P. Giannozzi et al., J. Phys.:Condens. Matter 29 465901 (2017);
         "P. Giannozzi et al., J. Chem. Phys. 152 154105 (2020);
          URL http://www.quantum-espresso.org", 
     in publications or presentations arising from this work. More details at
     http://www.quantum-espresso.org/quote

     Parallel version (MPI), running on     8 processors

     MPI processes distributed on     1 nodes
     569065 MiB available memory on the printing compute node when the environment starts
 
     Reading input from Si.scf_bands.in

     Current dimensions of program PWSCF are:
     Max number of different atomic species (ntypx) = 10
     Max number of k-points (npk) =  40000
     Max angular momentum in pseudopotentials (lmaxx) =  4

     IMPORTANT: XC functional enforced from input :
     Exchange-correlation= R2SCAN
                           (   0   0   0   0   0 497 498)
     Any further DFT definition will be discarded
     Please, verify this is what you really want

     Found identity + ( -0.0000 -0.0000  0.5000) symmetry
     This is a supercell, fractional translations are disabled
 
     R & G space division:  proc/nbgrp/npool/nimage =       8
     Subspace diagonalization in iterative solution of the eigenvalue problem:
     a serial algorithm will be used

 
     Parallelization info
     --------------------
     sticks:   dense  smooth     PW     G-vecs:    dense   smooth      PW
     Min         293     293     84                 9430     9430    1446
     Max         294     294     85                 9435     9435    1449
     Sum        2347    2347    673                75457    75457   11575
 
     Using Slab Decomposition
 


     bravais-lattice index     =            0
     lattice parameter (alat)  =      14.6204  a.u.
     unit-cell volume          =    2209.8296 (a.u.)^3
     number of atoms/cell      =           16
     number of atomic types    =            1
     number of electrons       =        64.00
     number of Kohn-Sham states=           38
     kinetic-energy cutoff     =      40.0000  Ry
     charge density cutoff     =     160.0000  Ry
     scf convergence threshold =      1.0E-09
     mixing beta               =       0.5000
     number of iterations used =            8  plain     mixing
     Exchange-correlation= R2SCAN
                           (   0   0   0   0   0 497 498)

     GPU acceleration is ACTIVE.  1 visible GPUs per MPI rank

     Message from routine print_cuda_info:
     High GPU oversubscription detected. Are you sure this is what you want?

     celldm(1)=  14.620354  celldm(2)=   0.000000  celldm(3)=   0.000000
     celldm(4)=   0.000000  celldm(5)=   0.000000  celldm(6)=   0.000000

     crystal axes: (cart. coord. in units of alat)
               a(1) = (   1.000000   0.000000   0.000000 )  
               a(2) = (   0.500000   0.866026   0.000000 )  
               a(3) = (   0.500000   0.288675   0.816497 )  

     reciprocal axes: (cart. coord. in units 2 pi/alat)
               b(1) = (  1.000000 -0.577350 -0.408249 )  
               b(2) = ( -0.000000  1.154700 -0.408248 )  
               b(3) = ( -0.000000 -0.000000  1.224745 )  


     PseudoPot. # 1 for Si read from file:
     ./Si_ONCV_PBE-1.2.upf
     MD5 check sum: 7f029a58b69e3aa87b46a36c608bf45e
     Pseudo is Norm-conserving, Zval =  4.0
     Generated using ONCVPSP code by D. R. Hamann
     Using radial grid of  602 points,  4 beta functions with: 
                l(1) =   0
                l(2) =   0
                l(3) =   1
                l(4) =   1

     atomic species   valence    mass     pseudopotential
     Si                4.00    28.08550     Si( 1.00)

     No symmetry found



   Cartesian axes

     site n.     atom                  positions (alat units)
         1        Si     tau(   1) = (   0.8750001   0.5051817   0.3572174  )
         2        Si     tau(   2) = (   1.1250000   0.6495191   0.7654657  )
         3        Si     tau(   3) = (   1.1249999   0.9381944   0.3572174  )
         4        Si     tau(   4) = (   1.3750002   1.0825320   0.7654658  )
         5        Si     tau(   5) = (   1.3750000   0.5051816   0.3572174  )
         6        Si     tau(   6) = (   1.6250002   0.6495192   0.7654658  )
         7        Si     tau(   7) = (   1.6250001   0.9381946   0.3572175  )
         8        Si     tau(   8) = (   1.8750000   1.0825320   0.7654657  )
         9        Si     tau(   9) = (   0.1250001   0.0721688   0.0510311  )
        10        Si     tau(  10) = (   0.3750000   0.2165063   0.4592794  )
        11        Si     tau(  11) = (   0.3749999   0.5051816   0.0510310  )
        12        Si     tau(  12) = (   0.6250001   0.6495192   0.4592795  )
        13        Si     tau(  13) = (   0.6249999   0.0721688   0.0510310  )
        14        Si     tau(  14) = (   0.8750001   0.2165064   0.4592795  )
        15        Si     tau(  15) = (   0.8750001   0.5051818   0.0510312  )
        16        Si     tau(  16) = (   1.1250000   0.6495192   0.4592794  )

     number of k points=   256  Fermi-Dirac smearing, width (Ry)=  0.0032

     Number of k-points >= 100: set verbosity='high' to print them.

     Dense  grid:    75457 G-vectors     FFT dimensions: (  60,  60,  60)

     Estimated max dynamical RAM per process >     191.39 MB

     Estimated total dynamical RAM >       1.50 GB

     WARNING: libxc functional with ID  497 depends
      on external parameters: check the user_guide of
      QE if you need to modify them or to check their
      default values.

     WARNING: libxc functional with ID  498 depends
      on external parameters: check the user_guide of
      QE if you need to modify them or to check their
      default values.

     Initial potential from superposition of free atoms

     starting charge      63.2604, renormalised to      64.0000
     Starting wfcs are random

     total cpu time spent up to now is       21.4 secs

     Self-consistent Calculation

     iteration #  1     ecut=    40.00 Ry     beta= 0.50
     Davidson diagonalization with overlap
     ethr =  1.00E-02,  avg # of iterations =  9.0

     Threshold (ethr) on eigenvalues was too large:
     Diagonalizing with lowered threshold

     Davidson diagonalization with overlap
     ethr =  8.61E-04,  avg # of iterations =  2.2

     total cpu time spent up to now is      235.8 secs

     total energy              =    -126.02714481 Ry
     estimated scf accuracy    <       0.58111176 Ry

     iteration #  2     ecut=    40.00 Ry     beta= 0.50
     Davidson diagonalization with overlap
     ethr =  9.08E-04,  avg # of iterations =  1.0

     total cpu time spent up to now is      290.8 secs

     total energy              =    -126.14743435 Ry
     estimated scf accuracy    <       0.12046578 Ry

     iteration #  3     ecut=    40.00 Ry     beta= 0.50
     Davidson diagonalization with overlap
     c_bands:  1 eigenvalues not converged
     ethr =  1.88E-04,  avg # of iterations =  7.5

     total cpu time spent up to now is      360.2 secs

     total energy              =    -126.15850714 Ry
     estimated scf accuracy    <       0.00177188 Ry

     iteration #  4     ecut=    40.00 Ry     beta= 0.50
     Davidson diagonalization with overlap
     c_bands:  2 eigenvalues not converged
     c_bands:  1 eigenvalues not converged
     c_bands:  1 eigenvalues not converged
     c_bands:  1 eigenvalues not converged
     c_bands:  1 eigenvalues not converged
     c_bands:  2 eigenvalues not converged
     c_bands:  2 eigenvalues not converged
     c_bands:  1 eigenvalues not converged
     c_bands:  1 eigenvalues not converged
     c_bands:  1 eigenvalues not converged
     c_bands:  2 eigenvalues not converged
     c_bands:  1 eigenvalues not converged
     c_bands:  2 eigenvalues not converged
     c_bands:  1 eigenvalues not converged
     c_bands:  3 eigenvalues not converged
     c_bands:  2 eigenvalues not converged
     c_bands:  2 eigenvalues not converged
     c_bands:  1 eigenvalues not converged
     c_bands:  1 eigenvalues not converged
     c_bands:  1 eigenvalues not converged
     c_bands:  1 eigenvalues not converged
     c_bands:  1 eigenvalues not converged
     c_bands:  2 eigenvalues not converged
     c_bands:  2 eigenvalues not converged
     c_bands:  1 eigenvalues not converged
     c_bands:  2 eigenvalues not converged
     c_bands:  1 eigenvalues not converged
     c_bands:  1 eigenvalues not converged
     c_bands:  2 eigenvalues not converged
     c_bands:  1 eigenvalues not converged
     c_bands:  2 eigenvalues not converged
     c_bands:  1 eigenvalues not converged
     c_bands:  3 eigenvalues not converged
     c_bands:  1 eigenvalues not converged
     c_bands:  1 eigenvalues not converged
     c_bands:  1 eigenvalues not converged
     c_bands:  2 eigenvalues not converged
     c_bands:  2 eigenvalues not converged
     c_bands:  1 eigenvalues not converged
     c_bands:  1 eigenvalues not converged
     c_bands:  2 eigenvalues not converged
     c_bands:  2 eigenvalues not converged
     c_bands:  3 eigenvalues not converged
     c_bands:  1 eigenvalues not converged
     c_bands:  1 eigenvalues not converged
     c_bands:  1 eigenvalues not converged
     c_bands:  2 eigenvalues not converged
     c_bands:  1 eigenvalues not converged
     c_bands:  2 eigenvalues not converged
     c_bands:  1 eigenvalues not converged
     c_bands:  1 eigenvalues not converged
     c_bands:  2 eigenvalues not converged
     c_bands:  3 eigenvalues not converged
     c_bands:  1 eigenvalues not converged
     c_bands:  2 eigenvalues not converged
     c_bands:  1 eigenvalues not converged
     c_bands:  2 eigenvalues not converged
     c_bands:  1 eigenvalues not converged
     c_bands:  1 eigenvalues not converged
     c_bands:  2 eigenvalues not converged
     c_bands:  3 eigenvalues not converged
     c_bands:  1 eigenvalues not converged
     c_bands:  1 eigenvalues not converged
     c_bands:  1 eigenvalues not converged
     c_bands:  2 eigenvalues not converged
     c_bands:  2 eigenvalues not converged
     c_bands:  2 eigenvalues not converged
     c_bands:  1 eigenvalues not converged
     c_bands:  2 eigenvalues not converged
     c_bands:  2 eigenvalues not converged
     c_bands:  1 eigenvalues not converged
     c_bands:  1 eigenvalues not converged
     c_bands:  1 eigenvalues not converged
     c_bands:  1 eigenvalues not converged
     c_bands:  1 eigenvalues not converged
     c_bands:  1 eigenvalues not converged
     c_bands:  1 eigenvalues not converged
     c_bands:  1 eigenvalues not converged
     c_bands:  1 eigenvalues not converged
     c_bands:  3 eigenvalues not converged
     c_bands:  1 eigenvalues not converged
     c_bands:  2 eigenvalues not converged
     c_bands:  1 eigenvalues not converged
     c_bands:  1 eigenvalues not converged
     c_bands:  1 eigenvalues not converged
     c_bands:  2 eigenvalues not converged
     c_bands:  1 eigenvalues not converged
     c_bands:  2 eigenvalues not converged
     c_bands:  1 eigenvalues not converged
     c_bands:  1 eigenvalues not converged
     c_bands:  1 eigenvalues not converged
     c_bands:  1 eigenvalues not converged
     c_bands:  2 eigenvalues not converged
     c_bands:  1 eigenvalues not converged
     c_bands:  1 eigenvalues not converged
     c_bands:  1 eigenvalues not converged
     c_bands:  1 eigenvalues not converged
     c_bands:  1 eigenvalues not converged
     c_bands:  1 eigenvalues not converged
     c_bands:  2 eigenvalues not converged
     c_bands:  1 eigenvalues not converged
     ethr =  2.77E-06,  avg # of iterations = 16.9

     total cpu time spent up to now is      484.1 secs

     total energy              =    -126.15993384 Ry
     estimated scf accuracy    <       0.00011643 Ry

     iteration #  5     ecut=    40.00 Ry     beta= 0.50
     Davidson diagonalization with overlap
     c_bands:  1 eigenvalues not converged
     c_bands:  2 eigenvalues not converged
     c_bands:  2 eigenvalues not converged
     c_bands:  1 eigenvalues not converged
     ethr =  1.82E-07,  avg # of iterations =  4.5

     total cpu time spent up to now is      558.4 secs

     total energy              =    -126.15995982 Ry
     estimated scf accuracy    <       0.00000370 Ry

     iteration #  6     ecut=    40.00 Ry     beta= 0.50
     Davidson diagonalization with overlap
     ethr =  5.78E-09,  avg # of iterations =  4.2

     total cpu time spent up to now is      636.9 secs

     total energy              =    -126.15996194 Ry
     estimated scf accuracy    <       0.00000031 Ry

     iteration #  7     ecut=    40.00 Ry     beta= 0.50
     Davidson diagonalization with overlap
     ethr =  4.83E-10,  avg # of iterations =  3.9

     total cpu time spent up to now is      714.2 secs

     total energy              =    -126.15996210 Ry
     estimated scf accuracy    <       0.00000010 Ry

     iteration #  8     ecut=    40.00 Ry     beta= 0.50
     Davidson diagonalization with overlap
     ethr =  1.64E-10,  avg # of iterations =  2.5

     total cpu time spent up to now is      781.9 secs

     total energy              =    -126.15996212 Ry
     estimated scf accuracy    <          5.4E-09 Ry

     iteration #  9     ecut=    40.00 Ry     beta= 0.50
     Davidson diagonalization with overlap
     ethr =  8.39E-12,  avg # of iterations =  4.7

     total cpu time spent up to now is      864.8 secs

     End of self-consistent calculation

     Number of k-points >= 100: set verbosity='high' to print the bands.

     the Fermi energy is     6.3129 ev

!    total energy              =    -126.15996212 Ry
     estimated scf accuracy    <          3.5E-10 Ry
     smearing contrib. (-TS)   =      -0.00000027 Ry
     internal energy E=F+TS    =    -126.15996185 Ry

     The total energy is F=E-TS. E is the sum of the following terms:
     one-electron contribution =      36.60779005 Ry
     hartree contribution      =       9.02266901 Ry
     xc contribution           =     -38.39905130 Ry
     ewald contribution        =    -133.39136960 Ry

     convergence has been achieved in   9 iterations
     Writing meta-gga kinetic term

     Forces acting on atoms (cartesian axes, Ry/au):

     atom    1 type  1   force =    -0.00000146   -0.00000114   -0.00000049
     atom    2 type  1   force =    -0.00000027   -0.00000047   -0.00000017
     atom    3 type  1   force =    -0.00000040   -0.00000041   -0.00000027
     atom    4 type  1   force =    -0.00000142   -0.00000088   -0.00000077
     atom    5 type  1   force =    -0.00000049   -0.00000043   -0.00000020
     atom    6 type  1   force =    -0.00000142   -0.00000112   -0.00000072
     atom    7 type  1   force =    -0.00000124   -0.00000081   -0.00000053
     atom    8 type  1   force =    -0.00000048   -0.00000033   -0.00000022
     atom    9 type  1   force =     0.00000051    0.00000058    0.00000013
     atom   10 type  1   force =     0.00000123    0.00000089    0.00000049
     atom   11 type  1   force =     0.00000131    0.00000092    0.00000071
     atom   12 type  1   force =     0.00000046    0.00000034    0.00000038
     atom   13 type  1   force =     0.00000141    0.00000101    0.00000068
     atom   14 type  1   force =     0.00000040    0.00000056    0.00000026
     atom   15 type  1   force =     0.00000036    0.00000029    0.00000015
     atom   16 type  1   force =     0.00000149    0.00000099    0.00000059

     Total force =     0.000005     Total SCF correction =     0.000011
     SCF correction compared to forces is large: reduce conv_thr to get better values

     Writing all to output data dir ./outdir_kpt_888_ecutWfc_40_ecutrho_160_scf_bands/Si.save/ :
     XML data file     Writing meta-gga kinetic term
, charge density, pseudopotentials, collected wavefunctions
 
     init_run     :     17.95s CPU     21.16s WALL (       1 calls)
     electrons    :    749.55s CPU    843.57s WALL (       1 calls)
     forces       :      0.52s CPU      0.53s WALL (       1 calls)

     Called by init_run:
     wfcinit      :     17.82s CPU     20.89s WALL (       1 calls)
     potinit      :      0.05s CPU      0.11s WALL (       1 calls)
     hinit0       :      0.02s CPU      0.07s WALL (       1 calls)

     Called by electrons:
     c_bands      :    614.68s CPU    699.27s WALL (      10 calls)
     sum_band     :    134.55s CPU    143.68s WALL (      10 calls)
     v_of_rho     :      0.27s CPU      0.35s WALL (      10 calls)
     mix_rho      :      0.06s CPU      0.11s WALL (      10 calls)

     Called by c_bands:
     init_us_2    :      2.07s CPU      2.20s WALL (    5632 calls)
     cegterg      :    609.03s CPU    693.39s WALL (    2560 calls)

     Called by *egterg:
     cdiaghg      :     23.38s CPU     24.21s WALL (   16746 calls)
                                       24.06s GPU  (   16746 calls)
     h_psi        :    589.03s CPU    675.06s WALL (   17258 calls)
                                      674.89s GPU  (   17258 calls)
     g_psi        :      0.06s CPU      0.27s WALL (   14442 calls)
                                        0.15s GPU  (   14442 calls)

     Called by h_psi:
     h_psi:calbec :      2.80s CPU      3.54s WALL (   17258 calls)
                                        3.38s GPU  (   17258 calls)
     vloc_psi     :     36.86s CPU     48.59s WALL (   17258 calls)
                                       48.46s GPU  (   17258 calls)
     add_vuspsi   :      4.87s CPU      5.90s WALL (   17258 calls)
                                        5.76s GPU  (   17258 calls)
     h_psi_meta   :    535.50s CPU    586.61s WALL (   17258 calls)

     General routines
     calbec       :      2.98s CPU      3.51s WALL (   18282 calls)
     fft          :      0.04s CPU      0.11s WALL (     121 calls)
                                        0.10s GPU  (     121 calls)
     ffts         :      0.01s CPU      0.01s WALL (      20 calls)
                                        0.01s GPU  (      20 calls)
     fftw         :    453.05s CPU    538.54s WALL ( 2486868 calls)
                                      518.77s GPU  ( 2486868 calls)
     interpolate  :      0.00s CPU      0.00s WALL (      10 calls)
 
     Parallel routines
 
     PWSCF        :  12m49.45s CPU  14m53.02s WALL

 
   This run was terminated on:   8:45:52   9Jun2025            

=------------------------------------------------------------------------------=
   JOB DONE.
=------------------------------------------------------------------------------=
