
     Program PWSCF v.6.7MaX starts on 10Sep2021 at 18:25:51 

     This program is part of the open-source Quantum ESPRESSO suite
     for quantum simulation of materials; please cite
         "P. Giannozzi et al., J. Phys.:Condens. Matter 21 395502 (2009);
         "P. Giannozzi et al., J. Phys.:Condens. Matter 29 465901 (2017);
          URL http://www.quantum-espresso.org", 
     in publications or presentations arising from this work. More details at
     http://www.quantum-espresso.org/quote

     Parallel version (MPI & OpenMP), running on      48 processor cores
     Number of MPI processes:                48
     Threads/MPI process:                     1

     MPI processes distributed on     1 nodes
     R & G space division:  proc/nbgrp/npool/nimage =      48
     Reading input from LLZO_ecut85_magn.vc_relax.in

     Current dimensions of program PWSCF are:
     Max number of different atomic species (ntypx) = 10
     Max number of k-points (npk) =  40000
     Max angular momentum in pseudopotentials (lmaxx) =  3
     Message from routine read_pp_mesh:
     mesh size missing, using the one in header
     Message from routine read_pp_mesh:
     mesh size missing, using the one in header
     Message from routine read_pp_mesh:
     mesh size missing, using the one in header
     Message from routine read_pp_mesh:
     mesh size missing, using the one in header

     gamma-point specific algorithms are used

     Subspace diagonalization in iterative solution of the eigenvalue problem:
     one sub-group per band group will be used
     scalapack distributed-memory algorithm (size of sub-group:  6*  6 procs)

     Found symmetry operation: I + (  0.5000  0.5000  0.5000)
     This is a supercell, fractional translations are disabled
     Message from routine setup:
     using ibrav=0 with symmetry is DISCOURAGED, use correct ibrav instead

     Parallelization info
     --------------------
     sticks:   dense  smooth     PW     G-vecs:    dense   smooth      PW
     Min         346     346     85                32450    32450    4054
     Max         348     348     88                32462    32462    4068
     Sum       16613   16613   4165              1557881  1557881  194819



     bravais-lattice index     =            0
     lattice parameter (alat)  =      24.7911  a.u.
     unit-cell volume          =   14715.3804 (a.u.)^3
     number of atoms/cell      =          192
     number of atomic types    =            4
     number of electrons       =      1200.00
     number of Kohn-Sham states=          720
     kinetic-energy cutoff     =      85.0000  Ry
     charge density cutoff     =     340.0000  Ry
     scf convergence threshold =      1.0E-07
     mixing beta               =       0.7000
     number of iterations used =            8  plain     mixing
     energy convergence thresh.=      1.0E-04
     force convergence thresh. =      1.0E-03
     press convergence thresh. =      5.0E-01
     Exchange-correlation= PBE
                           (   1   4   3   4   0   0   0)
     nstep                     =           50


     celldm(1)=  24.791128  celldm(2)=   0.000000  celldm(3)=   0.000000
     celldm(4)=   0.000000  celldm(5)=   0.000000  celldm(6)=   0.000000

     crystal axes: (cart. coord. in units of alat)
               a(1) = (   1.000000   0.000000   0.000000 )  
               a(2) = (   0.000000   1.000000   0.000000 )  
               a(3) = (   0.000000   0.000000   0.965790 )  

     reciprocal axes: (cart. coord. in units 2 pi/alat)
               b(1) = (  1.000000  0.000000  0.000000 )  
               b(2) = (  0.000000  1.000000  0.000000 )  
               b(3) = (  0.000000  0.000000  1.035422 )  


     PseudoPot. # 1 for Li read from file:
     /home/kartickr/QuantumEspresso_runs/pseudo/Li.upf
     MD5 check sum: dbcf0ea72988e720c8c712b432d51b0d
     Pseudo is Norm-conserving, Zval =  3.0
     Generated using ONCVPSP code by D. R. Hamann
     Using radial grid of 1944 points,  4 beta functions with: 
                l(1) =   0
                l(2) =   0
                l(3) =   1
                l(4) =   1

     PseudoPot. # 2 for O  read from file:
     /home/kartickr/QuantumEspresso_runs/pseudo/O.upf
     MD5 check sum: 3e3f909f7470e8921608ab6b1f57bbae
     Pseudo is Norm-conserving + core correction, Zval =  6.0
     Generated using ONCVPSP code by D. R. Hamann
     Using radial grid of  936 points,  5 beta functions with: 
                l(1) =   0
                l(2) =   0
                l(3) =   1
                l(4) =   1
                l(5) =   2

     PseudoPot. # 3 for La read from file:
     /home/kartickr/QuantumEspresso_runs/pseudo/La.upf
     MD5 check sum: cd9f961d044315b77468ddb00b57bfe4
     Pseudo is Norm-conserving + core correction, Zval = 11.0
     Generated using ONCVPSP code by D. R. Hamann
     Using radial grid of 1812 points,  8 beta functions with: 
                l(1) =   0
                l(2) =   0
                l(3) =   1
                l(4) =   1
                l(5) =   2
                l(6) =   2
                l(7) =   3
                l(8) =   3

     PseudoPot. # 4 for Zr read from file:
     /home/kartickr/QuantumEspresso_runs/pseudo/Zr.upf
     MD5 check sum: 8ea2969ae37cb4187a0232e4a563b421
     Pseudo is Norm-conserving + core correction, Zval = 12.0
     Generated using ONCVPSP code by D. R. Hamann
     Using radial grid of 1622 points,  6 beta functions with: 
                l(1) =   0
                l(2) =   0
                l(3) =   1
                l(4) =   1
                l(5) =   2
                l(6) =   2

     atomic species   valence    mass     pseudopotential
        Li             3.00     9.00000     Li( 1.00)
        O              6.00    16.00000     O ( 1.00)
        La            11.00   138.00000     La( 1.00)
        Zr            12.00    91.24000     Zr( 1.00)

     Starting magnetic structure 
     atomic species   magnetization
        Li           0.330
        O            0.167
        La           0.090
        Zr           0.167

      2 Sym. Ops., with inversion, found



   Cartesian axes

     site n.     atom                  positions (alat units)
         1           La  tau(   1) = (   0.5000000   0.7500000   0.6036186  )
         2           La  tau(   2) = (   0.5000000   0.7500000   0.1207237  )
         3           La  tau(   3) = (   0.0000000   0.7500000   0.8450661  )
         4           La  tau(   4) = (   0.0000000   0.7500000   0.3621712  )
         5           La  tau(   5) = (   0.5000000   0.2500000   0.3621712  )
         6           La  tau(   6) = (   0.5000000   0.2500000   0.8450661  )
         7           La  tau(   7) = (   0.0000000   0.2500000   0.1207237  )
         8           La  tau(   8) = (   0.0000000   0.2500000   0.6036186  )
         9           La  tau(   9) = (   0.2500000   0.8773000   0.4828949  )
        10           La  tau(  10) = (   0.7500000   0.8773000   0.0000000  )
        11           La  tau(  11) = (   0.1273000   0.5000000   0.7243424  )
        12           La  tau(  12) = (   0.8727000   0.5000000   0.2414475  )
        13           La  tau(  13) = (   0.7500000   0.1227000   0.4828949  )
        14           La  tau(  14) = (   0.2500000   0.1227000   0.0000000  )
        15           La  tau(  15) = (   0.2500000   0.6227000   0.0000000  )
        16           La  tau(  16) = (   0.7500000   0.6227000   0.4828949  )
        17           La  tau(  17) = (   0.1273000   0.0000000   0.2414475  )
        18           La  tau(  18) = (   0.8727000   0.0000000   0.7243424  )
        19           La  tau(  19) = (   0.7500000   0.3773000   0.0000000  )
        20           La  tau(  20) = (   0.2500000   0.3773000   0.4828949  )
        21           La  tau(  21) = (   0.6273000   0.0000000   0.2414475  )
        22           La  tau(  22) = (   0.3727000   0.0000000   0.7243424  )
        23           La  tau(  23) = (   0.6273000   0.5000000   0.7243424  )
        24           La  tau(  24) = (   0.3727000   0.5000000   0.2414475  )
        25           Zr  tau(  25) = (   0.2500000   0.7500000   0.7243424  )
        26           Zr  tau(  26) = (   0.7500000   0.7500000   0.2414475  )
        27           Zr  tau(  27) = (   0.0000000   0.5000000   0.0000000  )
        28           Zr  tau(  28) = (   0.0000000   0.5000000   0.4828949  )
        29           Zr  tau(  29) = (   0.7500000   0.2500000   0.2414475  )
        30           Zr  tau(  30) = (   0.2500000   0.2500000   0.7243424  )
        31           Zr  tau(  31) = (   0.2500000   0.7500000   0.2414475  )
        32           Zr  tau(  32) = (   0.7500000   0.7500000   0.7243424  )
        33           Zr  tau(  33) = (   0.0000000   0.0000000   0.4828949  )
        34           Zr  tau(  34) = (   0.0000000   0.0000000   0.0000000  )
        35           Zr  tau(  35) = (   0.7500000   0.2500000   0.7243424  )
        36           Zr  tau(  36) = (   0.2500000   0.2500000   0.2414475  )
        37           Zr  tau(  37) = (   0.5000000   0.0000000   0.4828949  )
        38           Zr  tau(  38) = (   0.5000000   0.0000000   0.0000000  )
        39           Zr  tau(  39) = (   0.5000000   0.5000000   0.0000000  )
        40           Zr  tau(  40) = (   0.5000000   0.5000000   0.4828949  )
        41           Li  tau(  41) = (   0.5000000   0.7500000   0.3621712  )
        42           Li  tau(  42) = (   0.5000000   0.7500000   0.8450661  )
        43           Li  tau(  43) = (   0.0000000   0.7500000   0.6036186  )
        44           Li  tau(  44) = (   0.0000000   0.7500000   0.1207237  )
        45           Li  tau(  45) = (   0.5000000   0.2500000   0.6036186  )
        46           Li  tau(  46) = (   0.5000000   0.2500000   0.1207237  )
        47           Li  tau(  47) = (   0.0000000   0.2500000   0.3621712  )
        48           Li  tau(  48) = (   0.0000000   0.2500000   0.8450661  )
        49           Li  tau(  49) = (   0.6774000   0.9274000   0.6036186  )
        50           Li  tau(  50) = (   0.3226000   0.9274000   0.1207237  )
        51           Li  tau(  51) = (   0.1774000   0.9274000   0.8450661  )
        52           Li  tau(  52) = (   0.8226000   0.9274000   0.3621712  )
        53           Li  tau(  53) = (   0.3226000   0.0726000   0.3621712  )
        54           Li  tau(  54) = (   0.6774000   0.0726000   0.8450661  )
        55           Li  tau(  55) = (   0.8226000   0.0726000   0.1207237  )
        56           Li  tau(  56) = (   0.1774000   0.0726000   0.6036186  )
        57           Li  tau(  57) = (   0.6774000   0.5726000   0.1207237  )
        58           Li  tau(  58) = (   0.3226000   0.5726000   0.6036186  )
        59           Li  tau(  59) = (   0.1774000   0.5726000   0.3621712  )
        60           Li  tau(  60) = (   0.8226000   0.5726000   0.8450661  )
        61           Li  tau(  61) = (   0.3226000   0.4274000   0.8450661  )
        62           Li  tau(  62) = (   0.6774000   0.4274000   0.3621712  )
        63           Li  tau(  63) = (   0.8226000   0.4274000   0.6036186  )
        64           Li  tau(  64) = (   0.1774000   0.4274000   0.1207237  )
        65           Li  tau(  65) = (   0.3370000   0.8300000   0.9127680  )
        66           Li  tau(  66) = (   0.6630000   0.8300000   0.4298730  )
        67           Li  tau(  67) = (   0.0800000   0.5870000   0.1884256  )
        68           Li  tau(  68) = (   0.9200000   0.5870000   0.6713205  )
        69           Li  tau(  69) = (   0.6630000   0.1700000   0.0530219  )
        70           Li  tau(  70) = (   0.3370000   0.1700000   0.5359168  )
        71           Li  tau(  71) = (   0.9200000   0.4130000   0.7773642  )
        72           Li  tau(  72) = (   0.0800000   0.4130000   0.2944693  )
        73           Li  tau(  73) = (   0.3370000   0.6700000   0.4298730  )
        74           Li  tau(  74) = (   0.6630000   0.6700000   0.9127680  )
        75           Li  tau(  75) = (   0.0800000   0.9130000   0.6713205  )
        76           Li  tau(  76) = (   0.9200000   0.9130000   0.1884256  )
        77           Li  tau(  77) = (   0.6630000   0.3300000   0.5359168  )
        78           Li  tau(  78) = (   0.3370000   0.3300000   0.0530219  )
        79           Li  tau(  79) = (   0.9200000   0.0870000   0.2944693  )
        80           Li  tau(  80) = (   0.0800000   0.0870000   0.7773642  )
        81           Li  tau(  81) = (   0.8370000   0.3300000   0.4298730  )
        82           Li  tau(  82) = (   0.1630000   0.3300000   0.9127680  )
        83           Li  tau(  83) = (   0.5800000   0.0870000   0.6713205  )
        84           Li  tau(  84) = (   0.4200000   0.0870000   0.1884256  )
        85           Li  tau(  85) = (   0.1630000   0.6700000   0.5359168  )
        86           Li  tau(  86) = (   0.8370000   0.6700000   0.0530219  )
        87           Li  tau(  87) = (   0.4200000   0.9130000   0.2944693  )
        88           Li  tau(  88) = (   0.5800000   0.9130000   0.7773642  )
        89           Li  tau(  89) = (   0.8370000   0.1700000   0.9127680  )
        90           Li  tau(  90) = (   0.1630000   0.1700000   0.4298730  )
        91           Li  tau(  91) = (   0.5800000   0.4130000   0.1884256  )
        92           Li  tau(  92) = (   0.4200000   0.4130000   0.6713205  )
        93           Li  tau(  93) = (   0.1630000   0.8300000   0.0530219  )
        94           Li  tau(  94) = (   0.8370000   0.8300000   0.5359168  )
        95           Li  tau(  95) = (   0.4200000   0.5870000   0.7773642  )
        96           Li  tau(  96) = (   0.5800000   0.5870000   0.2944693  )
        97           O   tau(  97) = (   0.3051000   0.7160000   0.5778320  )
        98           O   tau(  98) = (   0.6949000   0.7160000   0.0949371  )
        99           O   tau(  99) = (   0.9660000   0.5551000   0.8192795  )
       100           O   tau( 100) = (   0.0340000   0.5551000   0.3363846  )
       101           O   tau( 101) = (   0.6949000   0.2840000   0.3879578  )
       102           O   tau( 102) = (   0.3051000   0.2840000   0.8708527  )
       103           O   tau( 103) = (   0.0340000   0.4449000   0.1465103  )
       104           O   tau( 104) = (   0.9660000   0.4449000   0.6294052  )
       105           O   tau( 105) = (   0.3051000   0.7840000   0.0949371  )
       106           O   tau( 106) = (   0.6949000   0.7840000   0.5778320  )
       107           O   tau( 107) = (   0.9660000   0.9449000   0.3363846  )
       108           O   tau( 108) = (   0.0340000   0.9449000   0.8192795  )
       109           O   tau( 109) = (   0.6949000   0.2160000   0.8708527  )
       110           O   tau( 110) = (   0.3051000   0.2160000   0.3879578  )
       111           O   tau( 111) = (   0.0340000   0.0551000   0.6294052  )
       112           O   tau( 112) = (   0.9660000   0.0551000   0.1465103  )
       113           O   tau( 113) = (   0.8051000   0.2160000   0.0949371  )
       114           O   tau( 114) = (   0.1949000   0.2160000   0.5778320  )
       115           O   tau( 115) = (   0.4660000   0.0551000   0.3363846  )
       116           O   tau( 116) = (   0.5340000   0.0551000   0.8192795  )
       117           O   tau( 117) = (   0.1949000   0.7840000   0.8708527  )
       118           O   tau( 118) = (   0.8051000   0.7840000   0.3879578  )
       119           O   tau( 119) = (   0.5340000   0.9449000   0.6294052  )
       120           O   tau( 120) = (   0.4660000   0.9449000   0.1465103  )
       121           O   tau( 121) = (   0.8051000   0.2840000   0.5778320  )
       122           O   tau( 122) = (   0.1949000   0.2840000   0.0949371  )
       123           O   tau( 123) = (   0.4660000   0.4449000   0.8192795  )
       124           O   tau( 124) = (   0.5340000   0.4449000   0.3363846  )
       125           O   tau( 125) = (   0.1949000   0.7160000   0.3879578  )
       126           O   tau( 126) = (   0.8051000   0.7160000   0.8708527  )
       127           O   tau( 127) = (   0.5340000   0.5551000   0.1465103  )
       128           O   tau( 128) = (   0.4660000   0.5551000   0.6294052  )
       129           O   tau( 129) = (   0.1019000   0.8043000   0.2091901  )
       130           O   tau( 130) = (   0.8981000   0.8043000   0.6920850  )
       131           O   tau( 131) = (   0.0543000   0.3519000   0.4506375  )
       132           O   tau( 132) = (   0.9457000   0.3519000   0.9335324  )
       133           O   tau( 133) = (   0.8981000   0.1957000   0.7565997  )
       134           O   tau( 134) = (   0.1019000   0.1957000   0.2737048  )
       135           O   tau( 135) = (   0.9457000   0.6481000   0.5151523  )
       136           O   tau( 136) = (   0.0543000   0.6481000   0.0322574  )
       137           O   tau( 137) = (   0.1019000   0.6957000   0.6920850  )
       138           O   tau( 138) = (   0.8981000   0.6957000   0.2091901  )
       139           O   tau( 139) = (   0.0543000   0.1481000   0.9335324  )
       140           O   tau( 140) = (   0.9457000   0.1481000   0.4506375  )
       141           O   tau( 141) = (   0.8981000   0.3043000   0.2737048  )
       142           O   tau( 142) = (   0.1019000   0.3043000   0.7565997  )
       143           O   tau( 143) = (   0.9457000   0.8519000   0.0322574  )
       144           O   tau( 144) = (   0.0543000   0.8519000   0.5151523  )
       145           O   tau( 145) = (   0.6019000   0.3043000   0.6920850  )
       146           O   tau( 146) = (   0.3981000   0.3043000   0.2091901  )
       147           O   tau( 147) = (   0.5543000   0.8519000   0.9335324  )
       148           O   tau( 148) = (   0.4457000   0.8519000   0.4506375  )
       149           O   tau( 149) = (   0.3981000   0.6957000   0.2737048  )
       150           O   tau( 150) = (   0.6019000   0.6957000   0.7565997  )
       151           O   tau( 151) = (   0.4457000   0.1481000   0.0322574  )
       152           O   tau( 152) = (   0.5543000   0.1481000   0.5151523  )
       153           O   tau( 153) = (   0.6019000   0.1957000   0.2091901  )
       154           O   tau( 154) = (   0.3981000   0.1957000   0.6920850  )
       155           O   tau( 155) = (   0.5543000   0.6481000   0.4506375  )
       156           O   tau( 156) = (   0.4457000   0.6481000   0.9335324  )
       157           O   tau( 157) = (   0.3981000   0.8043000   0.7565997  )
       158           O   tau( 158) = (   0.6019000   0.8043000   0.2737048  )
       159           O   tau( 159) = (   0.4457000   0.3519000   0.5151523  )
       160           O   tau( 160) = (   0.5543000   0.3519000   0.0322574  )
       161           O   tau( 161) = (   0.2781000   0.8991000   0.2932138  )
       162           O   tau( 162) = (   0.7219000   0.8991000   0.7761087  )
       163           O   tau( 163) = (   0.1491000   0.5281000   0.5346612  )
       164           O   tau( 164) = (   0.8509000   0.5281000   0.0517663  )
       165           O   tau( 165) = (   0.7219000   0.1009000   0.6725760  )
       166           O   tau( 166) = (   0.2781000   0.1009000   0.1896811  )
       167           O   tau( 167) = (   0.8509000   0.4719000   0.4311286  )
       168           O   tau( 168) = (   0.1491000   0.4719000   0.9140235  )
       169           O   tau( 169) = (   0.2781000   0.6009000   0.7761087  )
       170           O   tau( 170) = (   0.7219000   0.6009000   0.2932138  )
       171           O   tau( 171) = (   0.1491000   0.9719000   0.0517663  )
       172           O   tau( 172) = (   0.8509000   0.9719000   0.5346612  )
       173           O   tau( 173) = (   0.7219000   0.3991000   0.1896811  )
       174           O   tau( 174) = (   0.2781000   0.3991000   0.6725760  )
       175           O   tau( 175) = (   0.8509000   0.0281000   0.9140235  )
       176           O   tau( 176) = (   0.1491000   0.0281000   0.4311286  )
       177           O   tau( 177) = (   0.7781000   0.3991000   0.7761087  )
       178           O   tau( 178) = (   0.2219000   0.3991000   0.2932138  )
       179           O   tau( 179) = (   0.6491000   0.0281000   0.0517663  )
       180           O   tau( 180) = (   0.3509000   0.0281000   0.5346612  )
       181           O   tau( 181) = (   0.2219000   0.6009000   0.1896811  )
       182           O   tau( 182) = (   0.7781000   0.6009000   0.6725760  )
       183           O   tau( 183) = (   0.3509000   0.9719000   0.9140235  )
       184           O   tau( 184) = (   0.6491000   0.9719000   0.4311286  )
       185           O   tau( 185) = (   0.7781000   0.1009000   0.2932138  )
       186           O   tau( 186) = (   0.2219000   0.1009000   0.7761087  )
       187           O   tau( 187) = (   0.6491000   0.4719000   0.5346612  )
       188           O   tau( 188) = (   0.3509000   0.4719000   0.0517663  )
       189           O   tau( 189) = (   0.2219000   0.8991000   0.6725760  )
       190           O   tau( 190) = (   0.7781000   0.8991000   0.1896811  )
       191           O   tau( 191) = (   0.3509000   0.5281000   0.4311286  )
       192           O   tau( 192) = (   0.6491000   0.5281000   0.9140235  )

     number of k points=     1  Fermi-Dirac smearing, width (Ry)=  0.0032
                       cart. coord. in units 2pi/alat
        k(    1) = (   0.0000000   0.0000000   0.0000000), wk =   1.0000000

     Dense  grid:   778941 G-vectors     FFT dimensions: ( 150, 150, 144)

     Estimated max dynamical RAM per process >     306.37 MB

     Estimated total dynamical RAM >      14.36 GB
     Generating pointlists ...
     new r_m :   0.0588 (alat units)  1.4581 (a.u.) for type    1
     new r_m :   0.0588 (alat units)  1.4581 (a.u.) for type    2
     new r_m :   0.0778 (alat units)  1.9295 (a.u.) for type    3
     new r_m :   0.0661 (alat units)  1.6380 (a.u.) for type    4

     Initial potential from superposition of free atoms

     starting charge 1199.49285, renormalised to 1200.00000
     Starting wfcs are  896 randomized atomic wfcs

     total cpu time spent up to now is       18.4 secs

     Self-consistent Calculation

     iteration #  1     ecut=    85.00 Ry     beta= 0.70
     Davidson diagonalization with overlap
     ethr =  1.00E-02,  avg # of iterations =  3.0

     total cpu time spent up to now is       49.9 secs

     total energy              =   -7284.07824743 Ry
     estimated scf accuracy    <      56.38199393 Ry

     total magnetization       =     0.00 Bohr mag/cell
     absolute magnetization    =    15.42 Bohr mag/cell

     iteration #  2     ecut=    85.00 Ry     beta= 0.70
     Davidson diagonalization with overlap
     ethr =  4.70E-03,  avg # of iterations =  4.0

     total cpu time spent up to now is       89.9 secs

     total energy              =   -7285.65550660 Ry
     estimated scf accuracy    <     116.54341196 Ry

     total magnetization       =     0.18 Bohr mag/cell
     absolute magnetization    =     9.01 Bohr mag/cell

     iteration #  3     ecut=    85.00 Ry     beta= 0.70
     Davidson diagonalization with overlap
     ethr =  4.70E-03,  avg # of iterations =  3.0

     total cpu time spent up to now is      123.6 secs

     total energy              =   -7310.02578902 Ry
     estimated scf accuracy    <       2.14430059 Ry

     total magnetization       =    -0.00 Bohr mag/cell
     absolute magnetization    =     6.61 Bohr mag/cell

     iteration #  4     ecut=    85.00 Ry     beta= 0.70
     Davidson diagonalization with overlap
     ethr =  1.79E-04,  avg # of iterations = 23.0

     total cpu time spent up to now is      218.2 secs

     total energy              =   -7311.00083639 Ry
     estimated scf accuracy    <       0.79673960 Ry

     total magnetization       =     0.00 Bohr mag/cell
     absolute magnetization    =     4.28 Bohr mag/cell

     iteration #  5     ecut=    85.00 Ry     beta= 0.70
     Davidson diagonalization with overlap
     ethr =  6.64E-05,  avg # of iterations = 15.0

     total cpu time spent up to now is      263.1 secs

     total energy              =   -7311.11938474 Ry
     estimated scf accuracy    <       0.09085196 Ry

     total magnetization       =     0.00 Bohr mag/cell
     absolute magnetization    =     1.47 Bohr mag/cell

     iteration #  6     ecut=    85.00 Ry     beta= 0.70
     Davidson diagonalization with overlap
     c_bands:  2 eigenvalues not converged
     ethr =  7.57E-06,  avg # of iterations = 51.0

     total cpu time spent up to now is      419.0 secs

     total energy              =   -7311.17533624 Ry
     estimated scf accuracy    <       0.01520070 Ry

     total magnetization       =    -0.00 Bohr mag/cell
     absolute magnetization    =     1.13 Bohr mag/cell

     iteration #  7     ecut=    85.00 Ry     beta= 0.70
     Davidson diagonalization with overlap
     c_bands:  2 eigenvalues not converged
     ethr =  1.27E-06,  avg # of iterations = 61.0

     total cpu time spent up to now is      567.3 secs

     total energy              =   -7311.17849857 Ry
     estimated scf accuracy    <       0.00119227 Ry

     total magnetization       =    -0.00 Bohr mag/cell
     absolute magnetization    =     0.73 Bohr mag/cell

     iteration #  8     ecut=    85.00 Ry     beta= 0.70
     Davidson diagonalization with overlap
     c_bands:  1 eigenvalues not converged
     ethr =  9.94E-08,  avg # of iterations = 23.0

     total cpu time spent up to now is      627.1 secs

     total energy              =   -7311.17890971 Ry
     estimated scf accuracy    <       0.00016433 Ry

     total magnetization       =    -0.00 Bohr mag/cell
     absolute magnetization    =     0.39 Bohr mag/cell

     iteration #  9     ecut=    85.00 Ry     beta= 0.70
     Davidson diagonalization with overlap
     c_bands:  2 eigenvalues not converged
     c_bands:  4 eigenvalues not converged
     ethr =  1.37E-08,  avg # of iterations = 60.0

     total cpu time spent up to now is      749.9 secs

     total energy              =   -7311.17899978 Ry
     estimated scf accuracy    <       0.00006925 Ry

     total magnetization       =    -0.00 Bohr mag/cell
     absolute magnetization    =     0.21 Bohr mag/cell

     iteration # 10     ecut=    85.00 Ry     beta= 0.70
     Davidson diagonalization with overlap
     c_bands:  5 eigenvalues not converged
     ethr =  5.77E-09,  avg # of iterations = 12.0

     total cpu time spent up to now is      794.2 secs

     total energy              =   -7311.17902451 Ry
     estimated scf accuracy    <       0.00003661 Ry

     total magnetization       =     0.00 Bohr mag/cell
     absolute magnetization    =     0.12 Bohr mag/cell

     iteration # 11     ecut=    85.00 Ry     beta= 0.70
     Davidson diagonalization with overlap
     c_bands:  1 eigenvalues not converged
     ethr =  3.05E-09,  avg # of iterations = 12.5

     total cpu time spent up to now is      834.6 secs

     total energy              =   -7311.17903468 Ry
     estimated scf accuracy    <       0.00000467 Ry

     total magnetization       =     0.00 Bohr mag/cell
     absolute magnetization    =     0.05 Bohr mag/cell

     iteration # 12     ecut=    85.00 Ry     beta= 0.70
     Davidson diagonalization with overlap
     ethr =  3.89E-10,  avg # of iterations =  6.5

     total cpu time spent up to now is      877.4 secs

     total energy              =   -7311.17903623 Ry
     estimated scf accuracy    <       0.00000235 Ry

     total magnetization       =    -0.00 Bohr mag/cell
     absolute magnetization    =     0.02 Bohr mag/cell

     iteration # 13     ecut=    85.00 Ry     beta= 0.70
     Davidson diagonalization with overlap
     ethr =  1.96E-10,  avg # of iterations =  3.5

     total cpu time spent up to now is      912.2 secs

     total energy              =   -7311.17903688 Ry
     estimated scf accuracy    <       0.00000021 Ry

     total magnetization       =    -0.00 Bohr mag/cell
     absolute magnetization    =     0.01 Bohr mag/cell

     iteration # 14     ecut=    85.00 Ry     beta= 0.70
     Davidson diagonalization with overlap
     ethr =  1.71E-11,  avg # of iterations =  6.0

     Magnetic moment per site:
     atom:    1    charge:    6.5744    magn:   -0.0000    constr:    0.0000
     atom:    2    charge:    6.5744    magn:   -0.0000    constr:    0.0000
     atom:    3    charge:    6.5743    magn:   -0.0000    constr:    0.0000
     atom:    4    charge:    6.5744    magn:   -0.0000    constr:    0.0000
     atom:    5    charge:    6.5743    magn:   -0.0000    constr:    0.0000
     atom:    6    charge:    6.5744    magn:   -0.0000    constr:    0.0000
     atom:    7    charge:    6.5744    magn:   -0.0000    constr:    0.0000
     atom:    8    charge:    6.5744    magn:   -0.0000    constr:    0.0000
     atom:    9    charge:    6.5861    magn:   -0.0000    constr:    0.0000
     atom:   10    charge:    6.5861    magn:   -0.0000    constr:    0.0000
     atom:   11    charge:    6.5854    magn:   -0.0000    constr:    0.0000
     atom:   12    charge:    6.5855    magn:   -0.0000    constr:    0.0000
     atom:   13    charge:    6.5861    magn:   -0.0000    constr:    0.0000
     atom:   14    charge:    6.5861    magn:   -0.0000    constr:    0.0000
     atom:   15    charge:    6.5861    magn:   -0.0000    constr:    0.0000
     atom:   16    charge:    6.5861    magn:   -0.0000    constr:    0.0000
     atom:   17    charge:    6.5855    magn:   -0.0000    constr:    0.0000
     atom:   18    charge:    6.5854    magn:   -0.0000    constr:    0.0000
     atom:   19    charge:    6.5861    magn:   -0.0000    constr:    0.0000
     atom:   20    charge:    6.5861    magn:   -0.0000    constr:    0.0000
     atom:   21    charge:    6.5854    magn:   -0.0000    constr:    0.0000
     atom:   22    charge:    6.5855    magn:   -0.0000    constr:    0.0000
     atom:   23    charge:    6.5855    magn:   -0.0000    constr:    0.0000
     atom:   24    charge:    6.5854    magn:   -0.0000    constr:    0.0000
     atom:   25    charge:    7.5745    magn:   -0.0000    constr:    0.0000
     atom:   26    charge:    7.5745    magn:   -0.0000    constr:    0.0000
     atom:   27    charge:    7.5751    magn:   -0.0000    constr:    0.0000
     atom:   28    charge:    7.5751    magn:   -0.0000    constr:    0.0000
     atom:   29    charge:    7.5745    magn:   -0.0000    constr:    0.0000
     atom:   30    charge:    7.5745    magn:   -0.0000    constr:    0.0000
     atom:   31    charge:    7.5745    magn:   -0.0000    constr:    0.0000
     atom:   32    charge:    7.5745    magn:   -0.0000    constr:    0.0000
     atom:   33    charge:    7.5751    magn:   -0.0000    constr:    0.0000
     atom:   34    charge:    7.5751    magn:   -0.0000    constr:    0.0000
     atom:   35    charge:    7.5745    magn:   -0.0000    constr:    0.0000
     atom:   36    charge:    7.5745    magn:   -0.0000    constr:    0.0000
     atom:   37    charge:    7.5751    magn:   -0.0000    constr:    0.0000
     atom:   38    charge:    7.5751    magn:   -0.0000    constr:    0.0000
     atom:   39    charge:    7.5751    magn:   -0.0000    constr:    0.0000
     atom:   40    charge:    7.5751    magn:   -0.0000    constr:    0.0000
     atom:   41    charge:    2.1583    magn:   -0.0000    constr:    0.0000
     atom:   42    charge:    2.1583    magn:   -0.0000    constr:    0.0000
     atom:   43    charge:    2.1583    magn:   -0.0000    constr:    0.0000
     atom:   44    charge:    2.1583    magn:   -0.0000    constr:    0.0000
     atom:   45    charge:    2.1583    magn:   -0.0000    constr:    0.0000
     atom:   46    charge:    2.1583    magn:   -0.0000    constr:    0.0000
     atom:   47    charge:    2.1583    magn:   -0.0000    constr:    0.0000
     atom:   48    charge:    2.1583    magn:   -0.0000    constr:    0.0000
     atom:   49    charge:    2.1025    magn:   -0.0000    constr:    0.0000
     atom:   50    charge:    2.1025    magn:   -0.0000    constr:    0.0000
     atom:   51    charge:    2.1025    magn:   -0.0000    constr:    0.0000
     atom:   52    charge:    2.1025    magn:   -0.0000    constr:    0.0000
     atom:   53    charge:    2.1025    magn:   -0.0000    constr:    0.0000
     atom:   54    charge:    2.1025    magn:   -0.0000    constr:    0.0000
     atom:   55    charge:    2.1025    magn:   -0.0000    constr:    0.0000
     atom:   56    charge:    2.1025    magn:   -0.0000    constr:    0.0000
     atom:   57    charge:    2.1025    magn:   -0.0000    constr:    0.0000
     atom:   58    charge:    2.1025    magn:   -0.0000    constr:    0.0000
     atom:   59    charge:    2.1025    magn:   -0.0000    constr:    0.0000
     atom:   60    charge:    2.1025    magn:   -0.0000    constr:    0.0000
     atom:   61    charge:    2.1025    magn:   -0.0000    constr:    0.0000
     atom:   62    charge:    2.1025    magn:   -0.0000    constr:    0.0000
     atom:   63    charge:    2.1025    magn:   -0.0000    constr:    0.0000
     atom:   64    charge:    2.1025    magn:   -0.0000    constr:    0.0000
     atom:   65    charge:    2.1112    magn:   -0.0000    constr:    0.0000
     atom:   66    charge:    2.1112    magn:   -0.0000    constr:    0.0000
     atom:   67    charge:    2.1113    magn:   -0.0000    constr:    0.0000
     atom:   68    charge:    2.1113    magn:   -0.0000    constr:    0.0000
     atom:   69    charge:    2.1112    magn:   -0.0000    constr:    0.0000
     atom:   70    charge:    2.1112    magn:   -0.0000    constr:    0.0000
     atom:   71    charge:    2.1113    magn:   -0.0000    constr:    0.0000
     atom:   72    charge:    2.1113    magn:   -0.0000    constr:    0.0000
     atom:   73    charge:    2.1112    magn:   -0.0000    constr:    0.0000
     atom:   74    charge:    2.1112    magn:   -0.0000    constr:    0.0000
     atom:   75    charge:    2.1113    magn:   -0.0000    constr:    0.0000
     atom:   76    charge:    2.1113    magn:   -0.0000    constr:    0.0000
     atom:   77    charge:    2.1112    magn:   -0.0000    constr:    0.0000
     atom:   78    charge:    2.1112    magn:   -0.0000    constr:    0.0000
     atom:   79    charge:    2.1113    magn:   -0.0000    constr:    0.0000
     atom:   80    charge:    2.1113    magn:   -0.0000    constr:    0.0000
     atom:   81    charge:    2.1112    magn:   -0.0000    constr:    0.0000
     atom:   82    charge:    2.1112    magn:   -0.0000    constr:    0.0000
     atom:   83    charge:    2.1113    magn:   -0.0000    constr:    0.0000
     atom:   84    charge:    2.1113    magn:   -0.0000    constr:    0.0000
     atom:   85    charge:    2.1112    magn:   -0.0000    constr:    0.0000
     atom:   86    charge:    2.1112    magn:   -0.0000    constr:    0.0000
     atom:   87    charge:    2.1113    magn:   -0.0000    constr:    0.0000
     atom:   88    charge:    2.1113    magn:   -0.0000    constr:    0.0000
     atom:   89    charge:    2.1112    magn:   -0.0000    constr:    0.0000
     atom:   90    charge:    2.1112    magn:   -0.0000    constr:    0.0000
     atom:   91    charge:    2.1113    magn:   -0.0000    constr:    0.0000
     atom:   92    charge:    2.1113    magn:   -0.0000    constr:    0.0000
     atom:   93    charge:    2.1112    magn:   -0.0000    constr:    0.0000
     atom:   94    charge:    2.1112    magn:   -0.0000    constr:    0.0000
     atom:   95    charge:    2.1113    magn:   -0.0000    constr:    0.0000
     atom:   96    charge:    2.1113    magn:   -0.0000    constr:    0.0000
     atom:   97    charge:    5.2029    magn:    0.0000    constr:    0.0000
     atom:   98    charge:    5.2029    magn:    0.0000    constr:    0.0000
     atom:   99    charge:    5.2029    magn:    0.0000    constr:    0.0000
     atom:  100    charge:    5.2030    magn:    0.0000    constr:    0.0000
     atom:  101    charge:    5.2029    magn:    0.0000    constr:    0.0000
     atom:  102    charge:    5.2029    magn:    0.0000    constr:    0.0000
     atom:  103    charge:    5.2030    magn:    0.0000    constr:    0.0000
     atom:  104    charge:    5.2029    magn:    0.0000    constr:    0.0000
     atom:  105    charge:    5.2029    magn:    0.0000    constr:    0.0000
     atom:  106    charge:    5.2029    magn:    0.0000    constr:    0.0000
     atom:  107    charge:    5.2029    magn:    0.0000    constr:    0.0000
     atom:  108    charge:    5.2029    magn:    0.0000    constr:    0.0000
     atom:  109    charge:    5.2029    magn:    0.0000    constr:    0.0000
     atom:  110    charge:    5.2029    magn:    0.0000    constr:    0.0000
     atom:  111    charge:    5.2029    magn:    0.0000    constr:    0.0000
     atom:  112    charge:    5.2030    magn:    0.0000    constr:    0.0000
     atom:  113    charge:    5.2029    magn:    0.0000    constr:    0.0000
     atom:  114    charge:    5.2029    magn:    0.0000    constr:    0.0000
     atom:  115    charge:    5.2029    magn:    0.0000    constr:    0.0000
     atom:  116    charge:    5.2029    magn:    0.0000    constr:    0.0000
     atom:  117    charge:    5.2029    magn:    0.0000    constr:    0.0000
     atom:  118    charge:    5.2029    magn:    0.0000    constr:    0.0000
     atom:  119    charge:    5.2030    magn:    0.0000    constr:    0.0000
     atom:  120    charge:    5.2029    magn:    0.0000    constr:    0.0000
     atom:  121    charge:    5.2029    magn:    0.0000    constr:    0.0000
     atom:  122    charge:    5.2029    magn:    0.0000    constr:    0.0000
     atom:  123    charge:    5.2029    magn:    0.0000    constr:    0.0000
     atom:  124    charge:    5.2029    magn:    0.0000    constr:    0.0000
     atom:  125    charge:    5.2029    magn:    0.0000    constr:    0.0000
     atom:  126    charge:    5.2029    magn:    0.0000    constr:    0.0000
     atom:  127    charge:    5.2029    magn:    0.0000    constr:    0.0000
     atom:  128    charge:    5.2029    magn:    0.0000    constr:    0.0000
     atom:  129    charge:    5.1734    magn:    0.0000    constr:    0.0000
     atom:  130    charge:    5.1734    magn:    0.0000    constr:    0.0000
     atom:  131    charge:    5.1732    magn:    0.0000    constr:    0.0000
     atom:  132    charge:    5.1731    magn:    0.0000    constr:    0.0000
     atom:  133    charge:    5.1734    magn:    0.0000    constr:    0.0000
     atom:  134    charge:    5.1734    magn:    0.0000    constr:    0.0000
     atom:  135    charge:    5.1732    magn:    0.0000    constr:    0.0000
     atom:  136    charge:    5.1732    magn:    0.0000    constr:    0.0000
     atom:  137    charge:    5.1734    magn:    0.0000    constr:    0.0000
     atom:  138    charge:    5.1734    magn:    0.0000    constr:    0.0000
     atom:  139    charge:    5.1731    magn:    0.0000    constr:    0.0000
     atom:  140    charge:    5.1732    magn:    0.0000    constr:    0.0000
     atom:  141    charge:    5.1734    magn:    0.0000    constr:    0.0000
     atom:  142    charge:    5.1734    magn:    0.0000    constr:    0.0000
     atom:  143    charge:    5.1731    magn:    0.0000    constr:    0.0000
     atom:  144    charge:    5.1732    magn:    0.0000    constr:    0.0000
     atom:  145    charge:    5.1734    magn:    0.0000    constr:    0.0000
     atom:  146    charge:    5.1734    magn:    0.0000    constr:    0.0000
     atom:  147    charge:    5.1732    magn:    0.0000    constr:    0.0000
     atom:  148    charge:    5.1732    magn:    0.0000    constr:    0.0000
     atom:  149    charge:    5.1734    magn:    0.0000    constr:    0.0000
     atom:  150    charge:    5.1734    magn:    0.0000    constr:    0.0000
     atom:  151    charge:    5.1731    magn:    0.0000    constr:    0.0000
     atom:  152    charge:    5.1732    magn:    0.0000    constr:    0.0000
     atom:  153    charge:    5.1734    magn:    0.0000    constr:    0.0000
     atom:  154    charge:    5.1734    magn:    0.0000    constr:    0.0000
     atom:  155    charge:    5.1732    magn:    0.0000    constr:    0.0000
     atom:  156    charge:    5.1731    magn:    0.0000    constr:    0.0000
     atom:  157    charge:    5.1734    magn:    0.0000    constr:    0.0000
     atom:  158    charge:    5.1734    magn:    0.0000    constr:    0.0000
     atom:  159    charge:    5.1732    magn:    0.0000    constr:    0.0000
     atom:  160    charge:    5.1731    magn:    0.0000    constr:    0.0000
     atom:  161    charge:    5.1931    magn:    0.0000    constr:    0.0000
     atom:  162    charge:    5.1931    magn:    0.0000    constr:    0.0000
     atom:  163    charge:    5.1932    magn:    0.0000    constr:    0.0000
     atom:  164    charge:    5.1932    magn:    0.0000    constr:    0.0000
     atom:  165    charge:    5.1931    magn:    0.0000    constr:    0.0000
     atom:  166    charge:    5.1931    magn:    0.0000    constr:    0.0000
     atom:  167    charge:    5.1932    magn:    0.0000    constr:    0.0000
     atom:  168    charge:    5.1932    magn:    0.0000    constr:    0.0000
     atom:  169    charge:    5.1930    magn:    0.0000    constr:    0.0000
     atom:  170    charge:    5.1931    magn:    0.0000    constr:    0.0000
     atom:  171    charge:    5.1932    magn:    0.0000    constr:    0.0000
     atom:  172    charge:    5.1932    magn:    0.0000    constr:    0.0000
     atom:  173    charge:    5.1931    magn:    0.0000    constr:    0.0000
     atom:  174    charge:    5.1931    magn:    0.0000    constr:    0.0000
     atom:  175    charge:    5.1932    magn:    0.0000    constr:    0.0000
     atom:  176    charge:    5.1932    magn:    0.0000    constr:    0.0000
     atom:  177    charge:    5.1931    magn:    0.0000    constr:    0.0000
     atom:  178    charge:    5.1931    magn:    0.0000    constr:    0.0000
     atom:  179    charge:    5.1932    magn:    0.0000    constr:    0.0000
     atom:  180    charge:    5.1932    magn:    0.0000    constr:    0.0000
     atom:  181    charge:    5.1931    magn:    0.0000    constr:    0.0000
     atom:  182    charge:    5.1931    magn:    0.0000    constr:    0.0000
     atom:  183    charge:    5.1932    magn:    0.0000    constr:    0.0000
     atom:  184    charge:    5.1932    magn:    0.0000    constr:    0.0000
     atom:  185    charge:    5.1931    magn:    0.0000    constr:    0.0000
     atom:  186    charge:    5.1931    magn:    0.0000    constr:    0.0000
     atom:  187    charge:    5.1932    magn:    0.0000    constr:    0.0000
     atom:  188    charge:    5.1932    magn:    0.0000    constr:    0.0000
     atom:  189    charge:    5.1931    magn:    0.0000    constr:    0.0000
     atom:  190    charge:    5.1931    magn:    0.0000    constr:    0.0000
     atom:  191    charge:    5.1932    magn:    0.0000    constr:    0.0000
     atom:  192    charge:    5.1932    magn:    0.0000    constr:    0.0000

     total cpu time spent up to now is      961.6 secs

     End of self-consistent calculation

 ------ SPIN UP ------------


          k = 0.0000 0.0000 0.0000 ( 97410 PWs)   bands (ev):

   -38.5948 -38.5948 -38.5948 -38.5948 -38.5948 -38.5947 -38.5947 -38.5947
   -38.5944 -38.5944 -38.5944 -38.5944 -38.5943 -38.5943 -38.5943 -38.5942
   -35.1733 -35.1732 -35.1732 -35.1731 -35.1715 -35.1714 -35.1714 -35.1714
   -35.1713 -35.1713 -35.1713 -35.1712 -35.1695 -35.1695 -35.1694 -35.1694
   -34.9568 -34.9561 -34.9561 -34.9558 -34.9549 -34.9548 -34.9547 -34.9547
   -34.9546 -34.9546 -34.9545 -34.9543 -34.9536 -34.9530 -34.9530 -34.9528
   -34.9418 -34.9416 -34.9414 -34.9413 -34.9412 -34.9412 -34.9412 -34.9411
   -34.9411 -34.9411 -34.9410 -34.9409 -34.9409 -34.9408 -34.9408 -34.9407
   -33.8104 -33.8104 -33.8104 -33.8104 -33.8104 -33.8104 -33.8104 -33.8103
   -21.5901 -21.5862 -21.5803 -21.5803 -21.5801 -21.5800 -21.5762 -21.5742
   -21.5068 -21.5067 -21.4949 -21.4918 -21.4748 -21.4748 -21.4721 -21.4721
   -21.4684 -21.4684 -21.4681 -21.4681 -21.4404 -21.4398 -21.4397 -21.4391
   -16.9378 -16.9376 -16.9374 -16.9373 -16.9369 -16.9365 -16.9364 -16.9361
   -16.9360 -16.9358 -16.9357 -16.9357 -16.9354 -16.9351 -16.9347 -16.9334
   -16.8991 -16.8991 -16.8988 -16.8987 -16.8980 -16.8978 -16.8969 -16.8969
   -16.8966 -16.8938 -16.8934 -16.8926 -16.8924 -16.8920 -16.8916 -16.8866
   -16.8509 -16.8508 -16.8505 -16.8504 -16.8496 -16.8491 -16.8486 -16.8485
   -16.8482 -16.8481 -16.8478 -16.8474 -16.8459 -16.8455 -16.8451 -16.8409
    -8.6318  -8.6317  -8.4795  -8.4794  -8.4722  -8.4268  -8.4268  -8.4213
    -8.4212  -8.4093  -8.3464  -8.3464  -8.3027  -8.3027  -8.2934  -8.2541
    -8.2270  -8.2270  -8.1709  -8.1709  -8.1316  -8.1316  -8.0214  -8.0213
    -8.0187  -8.0186  -8.0133  -8.0133  -7.9920  -7.9793  -7.9757  -7.9567
    -7.9391  -7.9105  -7.8829  -7.8829  -7.8809  -7.8697  -7.8696  -7.8596
    -7.8595  -7.8463  -7.8463  -7.8366  -7.8366  -7.8307  -7.8307  -7.7846
    -7.7727  -7.7596  -7.7595  -7.6662  -7.6662  -7.6340  -7.5968  -7.5783
    -7.5601  -7.5601  -7.5371  -7.5371  -7.5242  -7.5242  -7.5130  -7.5129
    -7.5035  -7.4634  -7.4634  -7.4427  -7.3982  -7.3982  -7.3725  -7.3679
    -7.3679  -7.3496  -7.3495  -7.2886  -7.2886  -7.2324  -7.2323  -7.2313
    -7.2045  -7.1929  -7.1871  -7.1870  -7.1396  -7.1395  -7.1385  -7.0671
    -7.0670  -7.0592  -7.0592  -7.0219  -7.0219  -6.9924  -6.9924  -6.8932
    -5.1810  -5.1809  -5.1736  -5.1735  -5.1528  -5.1528  -5.1508  -5.1508
    -5.1507  -5.1506  -5.1179  -5.1178  -5.0983  -5.0892  -5.0892  -5.0641
    -5.0640  -5.0537  -5.0242  -4.9886  -4.9885  -4.9424  -4.9424  -4.9412
    -4.9412  -4.9409  -4.9311  -4.9310  -4.9309  -4.9308  -4.8697  -4.8697
    -4.8674  -4.7854  -4.7794  -4.7793  -4.7413  -4.7073  -4.6877  -4.6820
    -4.6773  -4.6772  -4.6498  -4.6497  -4.5880  -4.5747  -4.5735  -4.5215
    -4.5215  -4.5212  -4.5211  -4.4968  -4.4968  -4.4956  -4.4956  -4.4332
    -4.4332  -4.3950  -4.3950  -4.3893  -4.3799  -4.3799  -4.3710  -4.3709
    -4.3487  -4.3487  -4.3216  -4.3215  -4.2992  -4.1717  -4.1717  -4.1325
     4.5827   4.8189   4.8190   4.8849   4.8849   4.8960   4.9246   4.9394
     4.9680   4.9680   4.9974   5.0095   5.0501   5.0501   5.0627   5.0627
     5.0828   5.0828   5.1711   5.1712   5.1937   5.2295   5.2295   5.2904
     5.2904   5.3037   5.3037   5.3153   5.3154   5.3543   5.3688   5.3688
     5.3821   5.3821   5.3946   5.3946   5.4294   5.4380   5.4652   5.4653
     5.4705   5.4725   5.4725   5.4760   5.4761   5.4785   5.4785   5.4960
     5.5358   5.5358   5.5568   5.5569   5.6047   5.6050   5.6051   5.6286
     5.6419   5.6419   5.6514   5.6515   5.6558   5.6799   5.6818   5.6818
     5.6962   5.6962   5.7496   5.7725   5.7726   5.7746   5.8054   5.8054
     5.8199   5.8199   5.8349   5.8350   5.8397   5.8408   5.8409   5.8419
     5.8419   5.8494   5.8495   5.8585   5.8586   5.8629   5.8639   5.8741
     5.8742   5.8857   5.8858   5.8975   5.8975   5.9118   5.9208   5.9209
     5.9793   5.9856   5.9878   6.0022   6.0022   6.0196   6.0282   6.0582
     6.0582   6.0606   6.0863   6.0863   6.1055   6.1220   6.1298   6.1565
     6.1582   6.1582   6.2498   6.2498   6.2770   6.3210   6.3210   6.3445
     6.3445   6.3620   6.3620   6.3742   6.4120   6.4120   6.4523   6.4524
     6.4704   6.4704   6.5119   6.5119   6.5147   6.5148   6.5208   6.5382
     6.5457   6.5457   6.5528   6.5528   6.5715   6.5772   6.5779   6.5976
     6.5976   6.6520   6.6520   6.6645   6.6648   6.6649   6.7140   6.7220
     6.7220   6.7276   6.7276   6.7425   6.7425   6.8077   6.8148   6.8327
     6.8484   6.8484   6.8872   6.8872   6.8984   6.8984   6.9153   6.9153
     6.9649   6.9649   6.9778   6.9790   6.9953   7.0380   7.0380   7.0572
     7.0572   7.0761   7.0761   7.0866   7.0866   7.1459   7.1459   7.2282
     7.2332   7.2333   7.2335   7.2422   7.2422   7.2535   7.2535   7.2537
     7.2887   7.2888   7.2948   7.2948   7.3041   7.3180   7.3180   7.3387
     7.3387   7.3456   7.3456   7.3586   7.3882   7.4018   7.4043   7.4044
     7.4104   7.4112   7.4112   7.4277   7.4277   7.4514   7.4514   7.4536
     7.4537   7.4662   7.4663   7.4679   7.4679   7.4859   7.4882   7.4882
     7.5110   7.5111   7.5163   7.5354   7.5354   7.5600   7.5818   7.5818
     7.5850   7.5851   7.5852   7.6389   7.6430   7.6431   7.6434   7.6434
     7.6596   7.6596   7.7003   7.7003   7.7023   7.7024   7.7173   7.7480
     7.7480   7.7501   7.7717   7.7717   7.7847   7.7855   7.7855   7.7916
     7.7916   7.8297   7.8297   7.8486   7.8742   7.8793   7.8793   7.8809
     7.8874   7.8875   7.9110   7.9349   7.9395   7.9395   7.9425   7.9426
     7.9533   7.9534   7.9719   7.9719   7.9734   7.9734   7.9743   7.9743
     7.9927   7.9928   8.0454   8.0567   8.0647   8.0692   8.0853   8.0853
    12.4948  12.6577  12.6828  12.6828  12.7291  12.7318  12.7318  12.7371
    12.7795  12.7795  12.8027  12.8027  12.8136  12.8630  12.8631  12.8734
    12.8734  12.8793  12.8794  12.8845  12.8846  12.9086  12.9087  12.9101
    12.9102  12.9387  12.9519  12.9784  12.9785  13.0222  13.0234  13.0235
    13.0237  13.0238  13.0280  13.0561  13.0563  13.0644  13.0645  13.0956
    13.0958  13.1192  13.1192  13.1217  13.1662  13.1781  13.2398  13.2642
    13.2643  13.3268  13.3270  13.3338  13.3340  13.3428  13.3533  13.3535
    13.3537  13.3537  13.3618  13.3621  13.3630  13.3877  13.3878  13.3915
    13.3917  13.3994  13.4044  13.4048  13.4099  13.4132  13.4143  13.4233
    13.4234  13.4415  13.4431  13.4453  13.4457  13.4465  13.4471  13.4474
    13.4475  13.4482  13.4488  13.4491  13.4539  13.4557  13.4593  13.4615
    13.4665  13.4718  13.4723  13.4746  13.4768  13.4774  13.4776  13.4807
    13.4864  13.4921  13.4942  13.4996  13.5051  13.5069  13.5165  13.5269
    13.5277  13.5281  13.5298  13.5369  13.5424  13.5447  13.5457  13.5474
    13.5517  13.5553  13.5629  13.5678  13.5710  13.5744  13.5786  13.5840

 ------ SPIN DOWN ----------


          k = 0.0000 0.0000 0.0000 ( 97410 PWs)   bands (ev):

   -38.5948 -38.5948 -38.5948 -38.5948 -38.5948 -38.5947 -38.5947 -38.5947
   -38.5944 -38.5944 -38.5944 -38.5944 -38.5943 -38.5943 -38.5943 -38.5942
   -35.1733 -35.1732 -35.1732 -35.1731 -35.1714 -35.1714 -35.1713 -35.1713
   -35.1713 -35.1713 -35.1712 -35.1712 -35.1695 -35.1694 -35.1694 -35.1693
   -34.9568 -34.9560 -34.9560 -34.9557 -34.9548 -34.9548 -34.9546 -34.9546
   -34.9545 -34.9545 -34.9544 -34.9543 -34.9535 -34.9529 -34.9529 -34.9527
   -34.9418 -34.9416 -34.9413 -34.9413 -34.9412 -34.9411 -34.9411 -34.9411
   -34.9410 -34.9410 -34.9409 -34.9409 -34.9408 -34.9408 -34.9408 -34.9407
   -33.8104 -33.8104 -33.8103 -33.8103 -33.8103 -33.8103 -33.8103 -33.8103
   -21.5901 -21.5863 -21.5803 -21.5803 -21.5801 -21.5800 -21.5762 -21.5742
   -21.5068 -21.5067 -21.4949 -21.4918 -21.4748 -21.4748 -21.4721 -21.4721
   -21.4684 -21.4684 -21.4681 -21.4681 -21.4404 -21.4398 -21.4397 -21.4391
   -16.9378 -16.9377 -16.9374 -16.9373 -16.9369 -16.9365 -16.9364 -16.9361
   -16.9360 -16.9358 -16.9358 -16.9357 -16.9354 -16.9351 -16.9347 -16.9334
   -16.8992 -16.8991 -16.8988 -16.8987 -16.8981 -16.8979 -16.8970 -16.8969
   -16.8966 -16.8938 -16.8934 -16.8926 -16.8924 -16.8920 -16.8917 -16.8867
   -16.8509 -16.8508 -16.8506 -16.8505 -16.8496 -16.8491 -16.8486 -16.8485
   -16.8482 -16.8481 -16.8478 -16.8474 -16.8459 -16.8456 -16.8452 -16.8409
    -8.6317  -8.6317  -8.4794  -8.4794  -8.4721  -8.4268  -8.4268  -8.4212
    -8.4212  -8.4092  -8.3464  -8.3464  -8.3027  -8.3026  -8.2933  -8.2540
    -8.2270  -8.2269  -8.1709  -8.1708  -8.1316  -8.1316  -8.0213  -8.0213
    -8.0186  -8.0186  -8.0132  -8.0132  -7.9919  -7.9793  -7.9757  -7.9567
    -7.9390  -7.9104  -7.8829  -7.8829  -7.8809  -7.8696  -7.8696  -7.8595
    -7.8595  -7.8463  -7.8462  -7.8366  -7.8365  -7.8307  -7.8307  -7.7846
    -7.7726  -7.7595  -7.7595  -7.6662  -7.6661  -7.6340  -7.5967  -7.5782
    -7.5601  -7.5601  -7.5371  -7.5370  -7.5242  -7.5241  -7.5129  -7.5129
    -7.5034  -7.4633  -7.4633  -7.4426  -7.3981  -7.3981  -7.3724  -7.3678
    -7.3678  -7.3495  -7.3495  -7.2886  -7.2885  -7.2323  -7.2323  -7.2312
    -7.2044  -7.1928  -7.1870  -7.1870  -7.1395  -7.1395  -7.1385  -7.0670
    -7.0669  -7.0592  -7.0591  -7.0218  -7.0218  -6.9923  -6.9923  -6.8932
    -5.1810  -5.1809  -5.1736  -5.1735  -5.1528  -5.1528  -5.1508  -5.1508
    -5.1507  -5.1506  -5.1179  -5.1178  -5.0983  -5.0892  -5.0892  -5.0641
    -5.0640  -5.0537  -5.0242  -4.9886  -4.9885  -4.9424  -4.9424  -4.9412
    -4.9411  -4.9409  -4.9310  -4.9309  -4.9309  -4.9308  -4.8697  -4.8697
    -4.8674  -4.7854  -4.7794  -4.7793  -4.7413  -4.7073  -4.6877  -4.6820
    -4.6773  -4.6772  -4.6498  -4.6497  -4.5880  -4.5746  -4.5735  -4.5215
    -4.5215  -4.5212  -4.5211  -4.4968  -4.4967  -4.4956  -4.4956  -4.4332
    -4.4332  -4.3950  -4.3950  -4.3893  -4.3799  -4.3799  -4.3709  -4.3709
    -4.3487  -4.3487  -4.3215  -4.3215  -4.2992  -4.1717  -4.1716  -4.1325
     4.5827   4.8190   4.8190   4.8849   4.8849   4.8961   4.9247   4.9394
     4.9680   4.9681   4.9974   5.0096   5.0501   5.0502   5.0627   5.0628
     5.0828   5.0828   5.1712   5.1712   5.1938   5.2295   5.2295   5.2904
     5.2905   5.3037   5.3037   5.3153   5.3154   5.3543   5.3688   5.3688
     5.3821   5.3822   5.3946   5.3947   5.4295   5.4380   5.4652   5.4653
     5.4705   5.4725   5.4725   5.4761   5.4761   5.4785   5.4785   5.4960
     5.5358   5.5358   5.5569   5.5569   5.6047   5.6051   5.6051   5.6286
     5.6420   5.6420   5.6515   5.6515   5.6558   5.6800   5.6818   5.6818
     5.6962   5.6962   5.7496   5.7726   5.7726   5.7746   5.8054   5.8055
     5.8199   5.8200   5.8350   5.8350   5.8398   5.8409   5.8409   5.8420
     5.8420   5.8495   5.8495   5.8586   5.8586   5.8629   5.8640   5.8742
     5.8742   5.8858   5.8858   5.8975   5.8975   5.9119   5.9209   5.9209
     5.9794   5.9857   5.9878   6.0022   6.0022   6.0196   6.0282   6.0583
     6.0583   6.0606   6.0864   6.0864   6.1056   6.1220   6.1298   6.1565
     6.1582   6.1583   6.2498   6.2498   6.2771   6.3210   6.3211   6.3445
     6.3446   6.3621   6.3621   6.3742   6.4120   6.4121   6.4524   6.4524
     6.4705   6.4705   6.5120   6.5120   6.5148   6.5148   6.5209   6.5382
     6.5458   6.5458   6.5528   6.5528   6.5716   6.5773   6.5779   6.5976
     6.5976   6.6520   6.6520   6.6646   6.6649   6.6649   6.7140   6.7220
     6.7221   6.7276   6.7276   6.7425   6.7425   6.8078   6.8148   6.8327
     6.8484   6.8485   6.8872   6.8873   6.8984   6.8984   6.9154   6.9154
     6.9649   6.9649   6.9778   6.9790   6.9954   7.0381   7.0381   7.0572
     7.0572   7.0762   7.0762   7.0867   7.0867   7.1459   7.1459   7.2283
     7.2333   7.2333   7.2336   7.2423   7.2423   7.2535   7.2536   7.2537
     7.2888   7.2888   7.2949   7.2949   7.3041   7.3180   7.3180   7.3387
     7.3387   7.3456   7.3457   7.3587   7.3882   7.4019   7.4044   7.4044
     7.4105   7.4113   7.4113   7.4278   7.4278   7.4515   7.4515   7.4537
     7.4537   7.4663   7.4663   7.4679   7.4679   7.4860   7.4883   7.4883
     7.5111   7.5111   7.5164   7.5355   7.5355   7.5600   7.5819   7.5819
     7.5851   7.5852   7.5852   7.6389   7.6431   7.6431   7.6435   7.6435
     7.6597   7.6597   7.7003   7.7003   7.7024   7.7024   7.7174   7.7481
     7.7481   7.7501   7.7718   7.7718   7.7847   7.7855   7.7855   7.7917
     7.7917   7.8298   7.8298   7.8487   7.8743   7.8794   7.8794   7.8810
     7.8875   7.8875   7.9111   7.9350   7.9396   7.9396   7.9426   7.9426
     7.9534   7.9534   7.9719   7.9720   7.9735   7.9735   7.9743   7.9743
     7.9928   7.9928   8.0455   8.0568   8.0648   8.0693   8.0853   8.0853
    12.4948  12.6577  12.6828  12.6828  12.7291  12.7317  12.7318  12.7371
    12.7794  12.7795  12.8026  12.8027  12.8136  12.8629  12.8631  12.8734
    12.8734  12.8793  12.8794  12.8845  12.8846  12.9086  12.9087  12.9101
    12.9101  12.9387  12.9519  12.9784  12.9785  13.0222  13.0234  13.0235
    13.0237  13.0238  13.0280  13.0561  13.0562  13.0643  13.0644  13.0956
    13.0957  13.1192  13.1192  13.1217  13.1662  13.1780  13.2398  13.2642
    13.2642  13.3268  13.3268  13.3336  13.3337  13.3425  13.3533  13.3534
    13.3534  13.3535  13.3617  13.3618  13.3631  13.3876  13.3877  13.3915
    13.3915  13.3994  13.4043  13.4044  13.4097  13.4129  13.4131  13.4233
    13.4233  13.4362  13.4414  13.4438  13.4457  13.4464  13.4470  13.4475
    13.4478  13.4478  13.4481  13.4483  13.4486  13.4550  13.4557  13.4594
    13.4595  13.4703  13.4711  13.4739  13.4748  13.4767  13.4770  13.4780
    13.4849  13.4854  13.4936  13.4941  13.5052  13.5054  13.5065  13.5138
    13.5149  13.5258  13.5271  13.5305  13.5352  13.5355  13.5359  13.5454
    13.5458  13.5516  13.5556  13.5574  13.5627  13.5693  13.5717  13.5747

     the Fermi energy is    10.3982 ev

!    total energy              =   -7311.17903698 Ry
     estimated scf accuracy    <       0.00000010 Ry
     smearing contrib. (-TS)   =       0.00000000 Ry
     internal energy E=F+TS    =   -7311.17903698 Ry

     The total energy is F=E-TS. E is the sum of the following terms:
     one-electron contribution =   -1518.05032233 Ry
     hartree contribution      =    1393.62056134 Ry
     xc contribution           =   -1727.89894107 Ry
     ewald contribution        =   -5458.85033492 Ry

     total magnetization       =     0.00 Bohr mag/cell
     absolute magnetization    =     0.00 Bohr mag/cell

     convergence has been achieved in  14 iterations

     Forces acting on atoms (cartesian axes, Ry/au):

     atom    1 type  3   force =     0.00000048    0.00000105   -0.00000248
     atom    2 type  3   force =     0.00000103    0.00000035   -0.00000197
     atom    3 type  3   force =    -0.00000139    0.00000114    0.00000281
     atom    4 type  3   force =    -0.00000048    0.00000100    0.00000124
     atom    5 type  3   force =    -0.00000048   -0.00000105    0.00000248
     atom    6 type  3   force =    -0.00000103   -0.00000035    0.00000197
     atom    7 type  3   force =     0.00000139   -0.00000114   -0.00000281
     atom    8 type  3   force =     0.00000048   -0.00000100   -0.00000124
     atom    9 type  3   force =     0.00000031    0.00880333    0.00000009
     atom   10 type  3   force =     0.00000190    0.00880203   -0.00000026
     atom   11 type  3   force =     0.00880075   -0.00000105    0.00000047
     atom   12 type  3   force =    -0.00880075    0.00000105   -0.00000047
     atom   13 type  3   force =    -0.00000031   -0.00880333   -0.00000009
     atom   14 type  3   force =    -0.00000190   -0.00880203    0.00000026
     atom   15 type  3   force =    -0.00000113   -0.00880246   -0.00000026
     atom   16 type  3   force =    -0.00000041   -0.00880111    0.00000005
     atom   17 type  3   force =     0.00880050    0.00000010   -0.00000013
     atom   18 type  3   force =    -0.00880050   -0.00000010    0.00000013
     atom   19 type  3   force =     0.00000113    0.00880246    0.00000026
     atom   20 type  3   force =     0.00000041    0.00880111   -0.00000005
     atom   21 type  3   force =     0.00880123    0.00000040    0.00000136
     atom   22 type  3   force =    -0.00880123   -0.00000040   -0.00000136
     atom   23 type  3   force =     0.00880119    0.00000140   -0.00000046
     atom   24 type  3   force =    -0.00880119   -0.00000140    0.00000046
     atom   25 type  4   force =     0.00000185    0.00000136   -0.00000164
     atom   26 type  4   force =     0.00000359   -0.00000030    0.00000042
     atom   27 type  4   force =     0.00000000    0.00000000    0.00000000
     atom   28 type  4   force =     0.00000000    0.00000000    0.00000000
     atom   29 type  4   force =    -0.00000185   -0.00000136    0.00000164
     atom   30 type  4   force =    -0.00000359    0.00000030   -0.00000042
     atom   31 type  4   force =    -0.00000402    0.00000351    0.00000188
     atom   32 type  4   force =     0.00000064    0.00000073    0.00000033
     atom   33 type  4   force =     0.00000000    0.00000000    0.00000000
     atom   34 type  4   force =     0.00000000    0.00000000    0.00000000
     atom   35 type  4   force =     0.00000402   -0.00000351   -0.00000188
     atom   36 type  4   force =    -0.00000064   -0.00000073   -0.00000033
     atom   37 type  4   force =     0.00000000    0.00000000    0.00000000
     atom   38 type  4   force =     0.00000000    0.00000000    0.00000000
     atom   39 type  4   force =     0.00000000    0.00000000    0.00000000
     atom   40 type  4   force =     0.00000000    0.00000000    0.00000000
     atom   41 type  1   force =     0.00000039    0.00000071    0.00000211
     atom   42 type  1   force =     0.00000072   -0.00000009    0.00000005
     atom   43 type  1   force =     0.00000023    0.00000072   -0.00000132
     atom   44 type  1   force =     0.00000013    0.00000046   -0.00000191
     atom   45 type  1   force =    -0.00000039   -0.00000071   -0.00000211
     atom   46 type  1   force =    -0.00000072    0.00000009   -0.00000005
     atom   47 type  1   force =    -0.00000023   -0.00000072    0.00000132
     atom   48 type  1   force =    -0.00000013   -0.00000046    0.00000191
     atom   49 type  1   force =     0.00298744    0.00296671    0.00000100
     atom   50 type  1   force =    -0.00298821    0.00296670    0.00000033
     atom   51 type  1   force =     0.00298676    0.00296626   -0.00000047
     atom   52 type  1   force =    -0.00298720    0.00296714   -0.00000127
     atom   53 type  1   force =    -0.00298744   -0.00296671   -0.00000100
     atom   54 type  1   force =     0.00298821   -0.00296670   -0.00000033
     atom   55 type  1   force =    -0.00298676   -0.00296626    0.00000047
     atom   56 type  1   force =     0.00298720   -0.00296714    0.00000127
     atom   57 type  1   force =     0.00298778   -0.00296631    0.00000038
     atom   58 type  1   force =    -0.00298725   -0.00296699    0.00000103
     atom   59 type  1   force =     0.00298693   -0.00296726   -0.00000129
     atom   60 type  1   force =    -0.00298695   -0.00296646   -0.00000048
     atom   61 type  1   force =    -0.00298778    0.00296631   -0.00000038
     atom   62 type  1   force =     0.00298725    0.00296699   -0.00000103
     atom   63 type  1   force =    -0.00298693    0.00296726    0.00000129
     atom   64 type  1   force =     0.00298695    0.00296646    0.00000048
     atom   65 type  1   force =     0.00030308    0.00244712   -0.00254307
     atom   66 type  1   force =    -0.00030387    0.00244753   -0.00254277
     atom   67 type  1   force =     0.00250905    0.00029902   -0.00254304
     atom   68 type  1   force =    -0.00250851    0.00029847   -0.00254227
     atom   69 type  1   force =    -0.00030308   -0.00244712    0.00254307
     atom   70 type  1   force =     0.00030387   -0.00244753    0.00254277
     atom   71 type  1   force =    -0.00250905   -0.00029902    0.00254304
     atom   72 type  1   force =     0.00250851   -0.00029847    0.00254227
     atom   73 type  1   force =     0.00030429   -0.00244713   -0.00254298
     atom   74 type  1   force =    -0.00030386   -0.00244606   -0.00254326
     atom   75 type  1   force =     0.00250847   -0.00029774   -0.00254214
     atom   76 type  1   force =    -0.00250912   -0.00029831   -0.00254294
     atom   77 type  1   force =    -0.00030429    0.00244713    0.00254298
     atom   78 type  1   force =     0.00030386    0.00244606    0.00254326
     atom   79 type  1   force =    -0.00250847    0.00029774    0.00254214
     atom   80 type  1   force =     0.00250912    0.00029831    0.00254294
     atom   81 type  1   force =     0.00030469    0.00244688   -0.00254330
     atom   82 type  1   force =    -0.00030465    0.00244610   -0.00254275
     atom   83 type  1   force =     0.00250811    0.00029738   -0.00254313
     atom   84 type  1   force =    -0.00250903    0.00029826   -0.00254225
     atom   85 type  1   force =    -0.00030469   -0.00244688    0.00254330
     atom   86 type  1   force =     0.00030465   -0.00244610    0.00254275
     atom   87 type  1   force =    -0.00250811   -0.00029738    0.00254313
     atom   88 type  1   force =     0.00250903   -0.00029826    0.00254225
     atom   89 type  1   force =     0.00030450   -0.00244761   -0.00254237
     atom   90 type  1   force =    -0.00030402   -0.00244758   -0.00254313
     atom   91 type  1   force =     0.00250799   -0.00029870   -0.00254248
     atom   92 type  1   force =    -0.00250859   -0.00029811   -0.00254281
     atom   93 type  1   force =    -0.00030450    0.00244761    0.00254237
     atom   94 type  1   force =     0.00030402    0.00244758    0.00254313
     atom   95 type  1   force =    -0.00250799    0.00029870    0.00254248
     atom   96 type  1   force =     0.00250859    0.00029811    0.00254281
     atom   97 type  2   force =    -0.00052616   -0.00580339   -0.01590664
     atom   98 type  2   force =     0.00052253   -0.00580282   -0.01590827
     atom   99 type  2   force =    -0.00574118   -0.00064402   -0.01591690
     atom  100 type  2   force =     0.00574091   -0.00064404   -0.01591630
     atom  101 type  2   force =     0.00052616    0.00580339    0.01590664
     atom  102 type  2   force =    -0.00052253    0.00580282    0.01590827
     atom  103 type  2   force =     0.00574118    0.00064402    0.01591690
     atom  104 type  2   force =    -0.00574091    0.00064404    0.01591630
     atom  105 type  2   force =    -0.00052388    0.00580261   -0.01590935
     atom  106 type  2   force =     0.00052462    0.00580298   -0.01590807
     atom  107 type  2   force =    -0.00574070    0.00064321   -0.01591721
     atom  108 type  2   force =     0.00574232    0.00064275   -0.01591809
     atom  109 type  2   force =     0.00052388   -0.00580261    0.01590935
     atom  110 type  2   force =    -0.00052462   -0.00580298    0.01590807
     atom  111 type  2   force =     0.00574070   -0.00064321    0.01591721
     atom  112 type  2   force =    -0.00574232   -0.00064275    0.01591809
     atom  113 type  2   force =    -0.00052620   -0.00580345   -0.01590914
     atom  114 type  2   force =     0.00052415   -0.00580283   -0.01590853
     atom  115 type  2   force =    -0.00574062   -0.00064413   -0.01591868
     atom  116 type  2   force =     0.00574082   -0.00064288   -0.01591584
     atom  117 type  2   force =     0.00052620    0.00580345    0.01590914
     atom  118 type  2   force =    -0.00052415    0.00580283    0.01590853
     atom  119 type  2   force =     0.00574062    0.00064413    0.01591868
     atom  120 type  2   force =    -0.00574082    0.00064288    0.01591584
     atom  121 type  2   force =    -0.00052438    0.00580416   -0.01590716
     atom  122 type  2   force =     0.00052509    0.00580325   -0.01590852
     atom  123 type  2   force =    -0.00574049    0.00064248   -0.01591708
     atom  124 type  2   force =     0.00574038    0.00064476   -0.01591803
     atom  125 type  2   force =     0.00052438   -0.00580416    0.01590716
     atom  126 type  2   force =    -0.00052509   -0.00580325    0.01590852
     atom  127 type  2   force =     0.00574049   -0.00064248    0.01591708
     atom  128 type  2   force =    -0.00574038   -0.00064476    0.01591803
     atom  129 type  2   force =     0.00025779    0.00317960   -0.00388757
     atom  130 type  2   force =    -0.00025565    0.00318032   -0.00388845
     atom  131 type  2   force =     0.00308717    0.00037050   -0.00388906
     atom  132 type  2   force =    -0.00309029    0.00037065   -0.00388944
     atom  133 type  2   force =    -0.00025779   -0.00317960    0.00388757
     atom  134 type  2   force =     0.00025565   -0.00318032    0.00388845
     atom  135 type  2   force =    -0.00308717   -0.00037050    0.00388906
     atom  136 type  2   force =     0.00309029   -0.00037065    0.00388944
     atom  137 type  2   force =     0.00025711   -0.00318052   -0.00388852
     atom  138 type  2   force =    -0.00025643   -0.00318109   -0.00388673
     atom  139 type  2   force =     0.00308945   -0.00036963   -0.00388939
     atom  140 type  2   force =    -0.00308829   -0.00036819   -0.00388982
     atom  141 type  2   force =    -0.00025711    0.00318052    0.00388852
     atom  142 type  2   force =     0.00025643    0.00318109    0.00388673
     atom  143 type  2   force =    -0.00308945    0.00036963    0.00388939
     atom  144 type  2   force =     0.00308829    0.00036819    0.00388982
     atom  145 type  2   force =     0.00025505    0.00318040   -0.00388730
     atom  146 type  2   force =    -0.00025645    0.00318111   -0.00388959
     atom  147 type  2   force =     0.00308763    0.00036966   -0.00388865
     atom  148 type  2   force =    -0.00308865    0.00036748   -0.00389126
     atom  149 type  2   force =    -0.00025505   -0.00318040    0.00388730
     atom  150 type  2   force =     0.00025645   -0.00318111    0.00388959
     atom  151 type  2   force =    -0.00308763   -0.00036966    0.00388865
     atom  152 type  2   force =     0.00308865   -0.00036748    0.00389126
     atom  153 type  2   force =     0.00025837   -0.00318050   -0.00389025
     atom  154 type  2   force =    -0.00025379   -0.00317986   -0.00388678
     atom  155 type  2   force =     0.00308805   -0.00036972   -0.00389149
     atom  156 type  2   force =    -0.00308878   -0.00036938   -0.00388808
     atom  157 type  2   force =    -0.00025837    0.00318050    0.00389025
     atom  158 type  2   force =     0.00025379    0.00317986    0.00388678
     atom  159 type  2   force =    -0.00308805    0.00036972    0.00389149
     atom  160 type  2   force =     0.00308878    0.00036938    0.00388808
     atom  161 type  2   force =     0.00126383    0.00995772    0.00062215
     atom  162 type  2   force =    -0.00126402    0.00995965    0.00062422
     atom  163 type  2   force =     0.00987775    0.00117499    0.00062802
     atom  164 type  2   force =    -0.00987954    0.00117276    0.00062731
     atom  165 type  2   force =    -0.00126383   -0.00995772   -0.00062215
     atom  166 type  2   force =     0.00126402   -0.00995965   -0.00062422
     atom  167 type  2   force =    -0.00987775   -0.00117499   -0.00062802
     atom  168 type  2   force =     0.00987954   -0.00117276   -0.00062731
     atom  169 type  2   force =     0.00126319   -0.00995820    0.00062405
     atom  170 type  2   force =    -0.00126409   -0.00995989    0.00062369
     atom  171 type  2   force =     0.00988145   -0.00117491    0.00062732
     atom  172 type  2   force =    -0.00987885   -0.00117400    0.00062803
     atom  173 type  2   force =    -0.00126319    0.00995820   -0.00062405
     atom  174 type  2   force =     0.00126409    0.00995989   -0.00062369
     atom  175 type  2   force =    -0.00988145    0.00117491   -0.00062732
     atom  176 type  2   force =     0.00987885    0.00117400   -0.00062803
     atom  177 type  2   force =     0.00126299    0.00995979    0.00062413
     atom  178 type  2   force =    -0.00126303    0.00996047    0.00062319
     atom  179 type  2   force =     0.00987848    0.00117501    0.00062740
     atom  180 type  2   force =    -0.00987994    0.00117486    0.00062837
     atom  181 type  2   force =    -0.00126299   -0.00995979   -0.00062413
     atom  182 type  2   force =     0.00126303   -0.00996047   -0.00062319
     atom  183 type  2   force =    -0.00987848   -0.00117501   -0.00062740
     atom  184 type  2   force =     0.00987994   -0.00117486   -0.00062837
     atom  185 type  2   force =     0.00126392   -0.00995785    0.00062143
     atom  186 type  2   force =    -0.00126200   -0.00995994    0.00062356
     atom  187 type  2   force =     0.00987947   -0.00117542    0.00062861
     atom  188 type  2   force =    -0.00987933   -0.00117282    0.00062805
     atom  189 type  2   force =    -0.00126392    0.00995785   -0.00062143
     atom  190 type  2   force =     0.00126200    0.00995994   -0.00062356
     atom  191 type  2   force =    -0.00987947    0.00117542   -0.00062861
     atom  192 type  2   force =     0.00987933    0.00117282   -0.00062805

     Total force =     0.122963     Total SCF correction =     0.000849


     Computing stress (Cartesian axis) and pressure

          total   stress  (Ry/bohr**3)                   (kbar)     P=       15.20
   0.00010705  -0.00000000  -0.00000000           15.75       -0.00       -0.00
  -0.00000000   0.00010702   0.00000000           -0.00       15.74        0.00
  -0.00000000   0.00000000   0.00009594           -0.00        0.00       14.11


     BFGS Geometry Optimization
     Energy error            =      0.0E+00
     Gradient error          =      1.6E-02
     Cell gradient error     =      1.1E-04


     number of scf cycles    =   1
     number of bfgs steps    =   0

     enthalpy new            =   -7311.1790369770 Ry

     new trust radius        =       0.0649282270 bohr
     new conv_thr            =       0.0000001000 Ry

     new unit-cell volume =  14829.72211 a.u.^3 (  2197.53809 Ang^3 )
     density =      5.14727 g/cm^3

CELL_PARAMETERS (bohr)
  24.857474066   0.000000000   0.000000000
   0.000000000  24.857458344   0.000000000
   0.000000000   0.000000000  24.000445189

ATOMIC_POSITIONS (crystal)
La            0.5000000193        0.7500000422        0.6249998964
La            0.5000000416        0.7500000140        0.1249999176
La           -0.0000000560        0.7500000459        0.8750001175
La           -0.0000000196        0.7500000405        0.3750000520
La            0.4999999807        0.2499999578        0.3750001036
La            0.4999999584        0.2499999860        0.8750000824
La            0.0000000560        0.2499999541        0.1249998825
La            0.0000000196        0.2499999595        0.6249999480
La            0.2500000125        0.8776551000        0.5000000037
La            0.7500000765        0.8776550475       -0.0000000109
La            0.1276549958        0.4999999576        0.7500000198
La            0.8723450042        0.5000000424        0.2499999802
La            0.7499999875        0.1223449000        0.4999999963
La            0.2499999235        0.1223449525        0.0000000109
La            0.2499999543        0.6223449351       -0.0000000108
La            0.7499999836        0.6223449895        0.5000000022
La            0.1276549860        0.0000000042        0.2499999947
La            0.8723450140       -0.0000000042        0.7500000053
La            0.7500000457        0.3776550649        0.0000000108
La            0.2500000164        0.3776550105        0.4999999978
La            0.6276550153        0.0000000161        0.2500000566
La            0.3723449847       -0.0000000161        0.7499999434
La            0.6276550136        0.5000000567        0.7499999809
La            0.3723449864        0.4999999433        0.2500000191
Zr            0.2500000747        0.7500000549        0.7499999314
Zr            0.7500001450        0.7499999878        0.2500000174
Zr            0.0000000000        0.5000000000        0.0000000000
Zr            0.0000000000        0.5000000000        0.5000000000
Zr            0.7499999253        0.2499999451        0.2500000686
Zr            0.2499998550        0.2500000122        0.7499999826
Zr            0.2499998378        0.7500001415        0.2500000785
Zr            0.7500000260        0.7500000296        0.7500000138
Zr            0.0000000000        0.0000000000        0.5000000000
Zr            0.0000000000        0.0000000000        0.0000000000
Zr            0.7500001622        0.2499998585        0.7499999215
Zr            0.2499999740        0.2499999704        0.2499999862
Zr            0.5000000000        0.0000000000        0.5000000000
Zr            0.5000000000        0.0000000000        0.0000000000
Zr            0.5000000000        0.5000000000        0.0000000000
Zr            0.5000000000        0.5000000000        0.5000000000
Li            0.5000000156        0.7500000286        0.3750000882
Li            0.5000000290        0.7499999963        0.8750000022
Li            0.0000000092        0.7500000290        0.6249999449
Li            0.0000000051        0.7500000185        0.1249999200
Li            0.4999999844        0.2499999714        0.6249999118
Li            0.4999999710        0.2500000037        0.1249999978
Li           -0.0000000092        0.2499999710        0.3750000551
Li           -0.0000000051        0.2499999815        0.8750000800
Li            0.6775205043        0.9275196684        0.6250000417
Li            0.3224794644        0.9275196679        0.1250000136
Li            0.1775204770        0.9275196501        0.8749999802
Li            0.8224795054        0.9275196855        0.3749999470
Li            0.3224794957        0.0724803316        0.3749999583
Li            0.6775205356        0.0724803321        0.8749999864
Li            0.8224795230        0.0724803499        0.1250000198
Li            0.1775204946        0.0724803145        0.6250000530
Li            0.6775205183        0.5724803478        0.1250000157
Li            0.3224795031        0.5724803207        0.6250000429
Li            0.1775204838        0.5724803095        0.3749999461
Li            0.8224795155        0.5724803419        0.8749999801
Li            0.3224794817        0.4275196522        0.8749999843
Li            0.6775204969        0.4275196793        0.3749999571
Li            0.8224795162        0.4275196905        0.6250000539
Li            0.1775204845        0.4275196581        0.1250000199
Li            0.3370122255        0.8300987093        0.9449937865
Li            0.6629877430        0.8300987260        0.4449937992
Li            0.0801012074        0.5870120616        0.1949937879
Li            0.9198988142        0.5870120393        0.6949938201
Li            0.6629877745        0.1699012907        0.0550062135
Li            0.3370122570        0.1699012740        0.5550062008
Li            0.9198987926        0.4129879384        0.8050062121
Li            0.0801011858        0.4129879607        0.3050061799
Li            0.3370122743        0.6699012902        0.4449937904
Li            0.6629877433        0.6699013332        0.9449937785
Li            0.0801011842        0.9129879901        0.6949938252
Li            0.9198987896        0.9129879670        0.1949937919
Li            0.6629877257        0.3300987098        0.5550062096
Li            0.3370122567        0.3300986668        0.0550062215
Li            0.9198988158        0.0870120099        0.3050061748
Li            0.0801012104        0.0870120330        0.8050062081
Li            0.8370122904        0.3300986999        0.4449937770
Li            0.1629877115        0.3300986683        0.9449937999
Li            0.5801011697        0.0870119952        0.6949937843
Li            0.4198987933        0.0870120309        0.1949938206
Li            0.1629877096        0.6699013001        0.5550062230
Li            0.8370122885        0.6699013317        0.0550062001
Li            0.4198988303        0.9129880048        0.3050062157
Li            0.5801012067        0.9129879691        0.8050061794
Li            0.8370122826        0.1699012707        0.9449938157
Li            0.1629877366        0.1699012718        0.4449937842
Li            0.5801011647        0.4129879515        0.1949938111
Li            0.4198988110        0.4129879752        0.6949937973
Li            0.1629877174        0.8300987293        0.0550061843
Li            0.8370122634        0.8300987282        0.5550062158
Li            0.4198988353        0.5870120485        0.8050061889
Li            0.5801011890        0.5870120248        0.3050062027
O             0.3050787762        0.7157659087        0.5976356459
O             0.6949210771        0.7157659315        0.0976355780
O             0.9657684179        0.5550740220        0.8476352175
O             0.0342315710        0.5550740212        0.3476352427
[...]
     7.3561   7.3633   7.3634   7.3653   7.3764   7.3766   7.3857   7.3861
     7.4187   7.4190   7.4234   7.4237   7.4312   7.4695   7.4698   7.4767
     7.4909   7.5196   7.5203   7.5366   7.5394   7.5396   7.5558   7.5561
     7.5573   7.5573   7.5990   7.5995   7.6026   7.6028   7.6149   7.6418
     7.6421   7.6470   7.6689   7.6691   7.6711   7.6712   7.6851   7.6901
     7.6904   7.7480   7.7498   7.7500   7.7724   7.7727   7.7818   7.7845
     7.7854   7.7859   7.7869   7.8359   7.8444   7.8446   7.8563   7.8564
     7.8625   7.8630   7.8636   7.8643   7.8643   7.8645   7.8790   7.8795
     7.8872   7.8877   7.9257   7.9311   7.9772   7.9810   7.9850   7.9850
    12.3521  12.5066  12.5070  12.5100  12.5520  12.5603  12.5889  12.5891
    12.6203  12.6203  12.6467  12.6472  12.6751  12.6886  12.6897  12.7024
    12.7026  12.7122  12.7129  12.7300  12.7303  12.7314  12.7329  12.7524
    12.7527  12.7864  12.7872  12.7936  12.8173  12.8190  12.8425  12.8430
    12.8634  12.8641  12.8664  12.8972  12.8975  12.9119  12.9122  12.9430
    12.9433  12.9437  12.9689  12.9689  12.9905  12.9966  13.0726  13.0728
    13.0825  13.1062  13.1062  13.1125  13.1127  13.1302  13.1309  13.1311
    13.1399  13.1465  13.1467  13.1496  13.1497  13.1776  13.1778  13.1867
    13.1870  13.2015  13.2017  13.2051  13.2142  13.2146  13.2156  13.2164
    13.2166  13.2197  13.2238  13.2238  13.2431  13.2463  13.2464  13.2504
    13.2706  13.2707  13.2765  13.2767  13.2948  13.2950  13.3060  13.3061
    13.3078  13.3081  13.3173  13.3176  13.3235  13.3236  13.3261  13.3263
    13.3368  13.3369  13.3658  13.3661  13.3692  13.3701  13.3703  13.3704
    13.3714  13.3782  13.3783  13.3844  13.3846  13.3925  13.3929  13.4031
    13.4041  13.4063  13.4096  13.4155  13.4158  13.4195  13.4287  13.4290

     the Fermi energy is    10.2406 ev

!    total energy              =   -7311.20962284 Ry
     estimated scf accuracy    <          2.1E-10 Ry
     smearing contrib. (-TS)   =       0.00000000 Ry
     internal energy E=F+TS    =   -7311.20962284 Ry

     The total energy is F=E-TS. E is the sum of the following terms:
     one-electron contribution =   -1530.03275317 Ry
     hartree contribution      =    1394.53902112 Ry
     xc contribution           =   -1726.91750844 Ry
     ewald contribution        =   -5448.79838235 Ry

     total magnetization       =     0.00 Bohr mag/cell
     absolute magnetization    =     0.00 Bohr mag/cell

     convergence has been achieved in  18 iterations

     Forces acting on atoms (cartesian axes, Ry/au):

     atom    1 type  3   force =    -0.00000006    0.00000016   -0.00000515
     atom    2 type  3   force =     0.00000009    0.00000018   -0.00000461
     atom    3 type  3   force =     0.00000003    0.00000007    0.00000461
     atom    4 type  3   force =    -0.00000009    0.00000008    0.00000512
     atom    5 type  3   force =     0.00000006   -0.00000016    0.00000515
     atom    6 type  3   force =    -0.00000009   -0.00000018    0.00000461
     atom    7 type  3   force =    -0.00000003   -0.00000007   -0.00000461
     atom    8 type  3   force =     0.00000009   -0.00000008   -0.00000512
     atom    9 type  3   force =    -0.00000012    0.00008534    0.00000006
     atom   10 type  3   force =    -0.00000003    0.00008539    0.00000014
     atom   11 type  3   force =     0.00009039   -0.00000005   -0.00000030
     atom   12 type  3   force =    -0.00009039    0.00000005    0.00000030
     atom   13 type  3   force =     0.00000012   -0.00008534   -0.00000006
     atom   14 type  3   force =     0.00000003   -0.00008539   -0.00000014
     atom   15 type  3   force =    -0.00000001   -0.00008507    0.00000004
     atom   16 type  3   force =     0.00000018   -0.00008505   -0.00000008
     atom   17 type  3   force =     0.00009049   -0.00000001    0.00000023
     atom   18 type  3   force =    -0.00009049    0.00000001   -0.00000023
     atom   19 type  3   force =     0.00000001    0.00008507   -0.00000004
     atom   20 type  3   force =    -0.00000018    0.00008505    0.00000008
     atom   21 type  3   force =     0.00009072   -0.00000009    0.00000008
     atom   22 type  3   force =    -0.00009072    0.00000009   -0.00000008
     atom   23 type  3   force =     0.00009060   -0.00000016   -0.00000012
     atom   24 type  3   force =    -0.00009060    0.00000016    0.00000012
     atom   25 type  4   force =    -0.00000022    0.00000039   -0.00000035
     atom   26 type  4   force =     0.00000008    0.00000032    0.00000051
     atom   27 type  4   force =     0.00000000    0.00000000    0.00000000
     atom   28 type  4   force =     0.00000000    0.00000000    0.00000000
     atom   29 type  4   force =     0.00000022   -0.00000039    0.00000035
     atom   30 type  4   force =    -0.00000008   -0.00000032   -0.00000051
     atom   31 type  4   force =    -0.00000014    0.00000016    0.00000032
     atom   32 type  4   force =     0.00000031    0.00000020   -0.00000048
     atom   33 type  4   force =     0.00000000    0.00000000    0.00000000
     atom   34 type  4   force =     0.00000000    0.00000000    0.00000000
     atom   35 type  4   force =     0.00000014   -0.00000016   -0.00000032
     atom   36 type  4   force =    -0.00000031   -0.00000020    0.00000048
     atom   37 type  4   force =     0.00000000    0.00000000    0.00000000
     atom   38 type  4   force =     0.00000000    0.00000000    0.00000000
     atom   39 type  4   force =     0.00000000    0.00000000    0.00000000
     atom   40 type  4   force =     0.00000000    0.00000000    0.00000000
     atom   41 type  1   force =     0.00000004    0.00000005    0.00000207
     atom   42 type  1   force =    -0.00000002    0.00000001    0.00000211
     atom   43 type  1   force =    -0.00000004   -0.00000004   -0.00000214
     atom   44 type  1   force =    -0.00000003   -0.00000002   -0.00000208
     atom   45 type  1   force =    -0.00000004   -0.00000005   -0.00000207
     atom   46 type  1   force =     0.00000002   -0.00000001   -0.00000211
     atom   47 type  1   force =     0.00000004    0.00000004    0.00000214
     atom   48 type  1   force =     0.00000003    0.00000002    0.00000208
     atom   49 type  1   force =    -0.00009830   -0.00008500   -0.00000054
     atom   50 type  1   force =     0.00009833   -0.00008504   -0.00000051
     atom   51 type  1   force =    -0.00009826   -0.00008500    0.00000048
     atom   52 type  1   force =     0.00009832   -0.00008503    0.00000054
     atom   53 type  1   force =     0.00009830    0.00008500    0.00000054
     atom   54 type  1   force =    -0.00009833    0.00008504    0.00000051
     atom   55 type  1   force =     0.00009826    0.00008500   -0.00000048
     atom   56 type  1   force =    -0.00009832    0.00008503   -0.00000054
     atom   57 type  1   force =    -0.00009827    0.00008505   -0.00000053
     atom   58 type  1   force =     0.00009827    0.00008496   -0.00000054
     atom   59 type  1   force =    -0.00009833    0.00008499    0.00000055
     atom   60 type  1   force =     0.00009834    0.00008495    0.00000051
     atom   61 type  1   force =     0.00009827   -0.00008505    0.00000053
     atom   62 type  1   force =    -0.00009827   -0.00008496    0.00000054
     atom   63 type  1   force =     0.00009833   -0.00008499   -0.00000055
     atom   64 type  1   force =    -0.00009834   -0.00008495   -0.00000051
     atom   65 type  1   force =     0.00015331    0.00023214   -0.00005491
     atom   66 type  1   force =    -0.00015329    0.00023207   -0.00005499
     atom   67 type  1   force =     0.00020457    0.00015304   -0.00004981
     atom   68 type  1   force =    -0.00020458    0.00015310   -0.00004991
     atom   69 type  1   force =    -0.00015331   -0.00023214    0.00005491
     atom   70 type  1   force =     0.00015329   -0.00023207    0.00005499
     atom   71 type  1   force =    -0.00020457   -0.00015304    0.00004981
     atom   72 type  1   force =     0.00020458   -0.00015310    0.00004991
     atom   73 type  1   force =     0.00015332   -0.00023202   -0.00005498
     atom   74 type  1   force =    -0.00015331   -0.00023207   -0.00005485
     atom   75 type  1   force =     0.00020463   -0.00015308   -0.00004987
     atom   76 type  1   force =    -0.00020466   -0.00015305   -0.00004981
     atom   77 type  1   force =    -0.00015332    0.00023202    0.00005498
     atom   78 type  1   force =     0.00015331    0.00023207    0.00005485
     atom   79 type  1   force =    -0.00020463    0.00015308    0.00004987
     atom   80 type  1   force =     0.00020466    0.00015305    0.00004981
     atom   81 type  1   force =     0.00015340    0.00023204   -0.00005494
     atom   82 type  1   force =    -0.00015331    0.00023208   -0.00005496
     atom   83 type  1   force =     0.00020469    0.00015309   -0.00004982
     atom   84 type  1   force =    -0.00020465    0.00015301   -0.00004984
     atom   85 type  1   force =    -0.00015340   -0.00023204    0.00005494
     atom   86 type  1   force =     0.00015331   -0.00023208    0.00005496
     atom   87 type  1   force =    -0.00020469   -0.00015309    0.00004982
     atom   88 type  1   force =     0.00020465   -0.00015301    0.00004984
     atom   89 type  1   force =     0.00015327   -0.00023211   -0.00005494
     atom   90 type  1   force =    -0.00015337   -0.00023207   -0.00005492
     atom   91 type  1   force =     0.00020459   -0.00015306   -0.00004986
     atom   92 type  1   force =    -0.00020465   -0.00015312   -0.00004983
     atom   93 type  1   force =    -0.00015327    0.00023211    0.00005494
     atom   94 type  1   force =     0.00015337    0.00023207    0.00005492
     atom   95 type  1   force =    -0.00020459    0.00015306    0.00004986
     atom   96 type  1   force =     0.00020465    0.00015312    0.00004983
     atom   97 type  2   force =    -0.00012238   -0.00000780    0.00019373
     atom   98 type  2   force =     0.00012252   -0.00000793    0.00019344
     atom   99 type  2   force =    -0.00000701   -0.00011660    0.00019147
     atom  100 type  2   force =     0.00000698   -0.00011664    0.00019127
     atom  101 type  2   force =     0.00012238    0.00000780   -0.00019373
     atom  102 type  2   force =    -0.00012252    0.00000793   -0.00019344
     atom  103 type  2   force =     0.00000701    0.00011660   -0.00019147
     atom  104 type  2   force =    -0.00000698    0.00011664   -0.00019127
     atom  105 type  2   force =    -0.00012250    0.00000775    0.00019351
     atom  106 type  2   force =     0.00012241    0.00000776    0.00019378
     atom  107 type  2   force =    -0.00000701    0.00011663    0.00019126
     atom  108 type  2   force =     0.00000700    0.00011664    0.00019138
     atom  109 type  2   force =     0.00012250   -0.00000775   -0.00019351
     atom  110 type  2   force =    -0.00012241   -0.00000776   -0.00019378
     atom  111 type  2   force =     0.00000701   -0.00011663   -0.00019126
     atom  112 type  2   force =    -0.00000700   -0.00011664   -0.00019138
     atom  113 type  2   force =    -0.00012248   -0.00000772    0.00019352
     atom  114 type  2   force =     0.00012255   -0.00000772    0.00019369
     atom  115 type  2   force =    -0.00000703   -0.00011660    0.00019122
     atom  116 type  2   force =     0.00000711   -0.00011662    0.00019134
     atom  117 type  2   force =     0.00012248    0.00000772   -0.00019352
     atom  118 type  2   force =    -0.00012255    0.00000772   -0.00019369
     atom  119 type  2   force =     0.00000703    0.00011660   -0.00019122
     atom  120 type  2   force =    -0.00000711    0.00011662   -0.00019134
     atom  121 type  2   force =    -0.00012253    0.00000780    0.00019369
     atom  122 type  2   force =     0.00012258    0.00000788    0.00019351
     atom  123 type  2   force =    -0.00000699    0.00011668    0.00019150
     atom  124 type  2   force =     0.00000703    0.00011661    0.00019130
     atom  125 type  2   force =     0.00012253   -0.00000780   -0.00019369
     atom  126 type  2   force =    -0.00012258   -0.00000788   -0.00019351
     atom  127 type  2   force =     0.00000699   -0.00011668   -0.00019150
     atom  128 type  2   force =    -0.00000703   -0.00011661   -0.00019130
     atom  129 type  2   force =     0.00007665    0.00007273    0.00005527
     atom  130 type  2   force =    -0.00007665    0.00007272    0.00005564
     atom  131 type  2   force =     0.00007170    0.00006618    0.00006181
     atom  132 type  2   force =    -0.00007168    0.00006627    0.00006185
     atom  133 type  2   force =    -0.00007665   -0.00007273   -0.00005527
     atom  134 type  2   force =     0.00007665   -0.00007272   -0.00005564
     atom  135 type  2   force =    -0.00007170   -0.00006618   -0.00006181
     atom  136 type  2   force =     0.00007168   -0.00006627   -0.00006185
     atom  137 type  2   force =     0.00007658   -0.00007288    0.00005561
     atom  138 type  2   force =    -0.00007662   -0.00007293    0.00005528
     atom  139 type  2   force =     0.00007157   -0.00006610    0.00006188
     atom  140 type  2   force =    -0.00007160   -0.00006611    0.00006185
     atom  141 type  2   force =    -0.00007658    0.00007288   -0.00005561
     atom  142 type  2   force =     0.00007662    0.00007293   -0.00005528
     atom  143 type  2   force =    -0.00007157    0.00006610   -0.00006188
     atom  144 type  2   force =     0.00007160    0.00006611   -0.00006185
     atom  145 type  2   force =     0.00007653    0.00007291    0.00005551
     atom  146 type  2   force =    -0.00007651    0.00007291    0.00005529
     atom  147 type  2   force =     0.00007157    0.00006607    0.00006183
     atom  148 type  2   force =    -0.00007159    0.00006611    0.00006193
     atom  149 type  2   force =    -0.00007653   -0.00007291   -0.00005551
     atom  150 type  2   force =     0.00007651   -0.00007291   -0.00005529
     atom  151 type  2   force =    -0.00007157   -0.00006607   -0.00006183
     atom  152 type  2   force =     0.00007159   -0.00006611   -0.00006193
     atom  153 type  2   force =     0.00007650   -0.00007270    0.00005536
     atom  154 type  2   force =    -0.00007645   -0.00007272    0.00005551
     atom  155 type  2   force =     0.00007157   -0.00006622    0.00006189
     atom  156 type  2   force =    -0.00007157   -0.00006633    0.00006176
     atom  157 type  2   force =    -0.00007650    0.00007270   -0.00005536
     atom  158 type  2   force =     0.00007645    0.00007272   -0.00005551
     atom  159 type  2   force =    -0.00007157    0.00006622   -0.00006189
     atom  160 type  2   force =     0.00007157    0.00006633   -0.00006176
     atom  161 type  2   force =    -0.00013488   -0.00001299    0.00019430
     atom  162 type  2   force =     0.00013484   -0.00001302    0.00019443
     atom  163 type  2   force =    -0.00000869   -0.00014126    0.00019068
     atom  164 type  2   force =     0.00000869   -0.00014125    0.00019051
     atom  165 type  2   force =     0.00013488    0.00001299   -0.00019430
     atom  166 type  2   force =    -0.00013484    0.00001302   -0.00019443
     atom  167 type  2   force =     0.00000869    0.00014126   -0.00019068
     atom  168 type  2   force =    -0.00000869    0.00014125   -0.00019051
     atom  169 type  2   force =    -0.00013488    0.00001293    0.00019453
     atom  170 type  2   force =     0.00013488    0.00001287    0.00019435
     atom  171 type  2   force =    -0.00000874    0.00014122    0.00019055
     atom  172 type  2   force =     0.00000865    0.00014129    0.00019073
     atom  173 type  2   force =     0.00013488   -0.00001293   -0.00019453
     atom  174 type  2   force =    -0.00013488   -0.00001287   -0.00019435
     atom  175 type  2   force =     0.00000874   -0.00014122   -0.00019055
     atom  176 type  2   force =    -0.00000865   -0.00014129   -0.00019073
     atom  177 type  2   force =    -0.00013505   -0.00001294    0.00019453
     atom  178 type  2   force =     0.00013509   -0.00001297    0.00019426
     atom  179 type  2   force =    -0.00000875   -0.00014115    0.00019049
     atom  180 type  2   force =     0.00000889   -0.00014128    0.00019063
     atom  181 type  2   force =     0.00013505    0.00001294   -0.00019453
     atom  182 type  2   force =    -0.00013509    0.00001297   -0.00019426
     atom  183 type  2   force =     0.00000875    0.00014115   -0.00019049
     atom  184 type  2   force =    -0.00000889    0.00014128   -0.00019063
     atom  185 type  2   force =    -0.00013508    0.00001308    0.00019428
     atom  186 type  2   force =     0.00013497    0.00001314    0.00019450
     atom  187 type  2   force =    -0.00000888    0.00014121    0.00019067
     atom  188 type  2   force =     0.00000885    0.00014124    0.00019058
     atom  189 type  2   force =     0.00013508   -0.00001308   -0.00019428
     atom  190 type  2   force =    -0.00013497   -0.00001314   -0.00019450
     atom  191 type  2   force =     0.00000888   -0.00014121   -0.00019067
     atom  192 type  2   force =    -0.00000885   -0.00014124   -0.00019058

     Total force =     0.002579     Total SCF correction =     0.000034


     Computing stress (Cartesian axis) and pressure

          total   stress  (Ry/bohr**3)                   (kbar)     P=       -0.07
   0.00000017   0.00000000  -0.00000000            0.02        0.00       -0.00
   0.00000000   0.00000015  -0.00000000            0.00        0.02       -0.00
  -0.00000000  -0.00000000  -0.00000173           -0.00       -0.00       -0.25


     Writing output data file /home/kartickr/QuantumEspresso_runs/CPU/LLZO/temp/LLZO.save/

     init_run     :     35.62s CPU     36.08s WALL (       2 calls)
     electrons    :   7108.07s CPU   7232.58s WALL (      13 calls)
     update_pot   :     92.08s CPU     92.71s WALL (      11 calls)
     forces       :    157.53s CPU    161.67s WALL (      13 calls)
     stress       :   4333.28s CPU   4403.53s WALL (      13 calls)

     Called by init_run:
     wfcinit      :     21.86s CPU     22.24s WALL (       2 calls)
     potinit      :      4.89s CPU      4.94s WALL (       2 calls)
     hinit0       :      8.43s CPU      8.45s WALL (       2 calls)

     Called by electrons:
     c_bands      :   6587.26s CPU   6695.98s WALL (     153 calls)
     sum_band     :    466.74s CPU    476.84s WALL (     153 calls)
     v_of_rho     :     45.46s CPU     46.17s WALL (     161 calls)
     mix_rho      :      7.81s CPU      8.07s WALL (     153 calls)

     Called by c_bands:
     init_us_2    :     43.71s CPU     44.65s WALL (     668 calls)
     regterg      :   6438.59s CPU   6545.67s WALL (     346 calls)

     Called by *egterg:
     rdiaghg      :    551.34s CPU    568.40s WALL (    3195 calls)
     h_psi        :   3432.50s CPU   3492.65s WALL (    3241 calls)
     g_psi        :     10.52s CPU     10.64s WALL (    2891 calls)

     Called by h_psi:
     h_psi:calbec :    875.32s CPU    884.62s WALL (    3241 calls)
     vloc_psi     :   2129.79s CPU   2172.55s WALL (    3241 calls)
     add_vuspsi   :    408.08s CPU    415.93s WALL (    3241 calls)

     General routines
     calbec       :   2131.34s CPU   2149.14s WALL (    3371 calls)
     fft          :     29.44s CPU     29.96s WALL (    2813 calls)
     ffts         :      2.33s CPU      2.39s WALL (     306 calls)
     fftw         :   2352.51s CPU   2396.22s WALL (  861410 calls)

     Parallel routines
     fft_scatt_xy :    153.83s CPU    157.43s WALL (  864529 calls)
     fft_scatt_yz :   1798.99s CPU   1824.15s WALL (  864529 calls)

     PWSCF        :      3h15m CPU      3h19m WALL


   This run was terminated on:  21:45: 9  10Sep2021            

=------------------------------------------------------------------------------=
   JOB DONE.
=------------------------------------------------------------------------------=
