
     Program PWSCF v.6.7MaX starts on  8Sep2021 at 12:14:24 

     This program is part of the open-source Quantum ESPRESSO suite
     for quantum simulation of materials; please cite
         "P. Giannozzi et al., J. Phys.:Condens. Matter 21 395502 (2009);
         "P. Giannozzi et al., J. Phys.:Condens. Matter 29 465901 (2017);
          URL http://www.quantum-espresso.org", 
     in publications or presentations arising from this work. More details at
     http://www.quantum-espresso.org/quote

     Parallel version (MPI & OpenMP), running on      48 processor cores
     Number of MPI processes:                48
     Threads/MPI process:                     1

     MPI processes distributed on     1 nodes
     R & G space division:  proc/nbgrp/npool/nimage =      48
     Reading input from LLZO_ecut85_magn.scf.in

     Current dimensions of program PWSCF are:
     Max number of different atomic species (ntypx) = 10
     Max number of k-points (npk) =  40000
     Max angular momentum in pseudopotentials (lmaxx) =  3
     Message from routine read_pp_mesh:
     mesh size missing, using the one in header
     Message from routine read_pp_mesh:
     mesh size missing, using the one in header
     Message from routine read_pp_mesh:
     mesh size missing, using the one in header
     Message from routine read_pp_mesh:
     mesh size missing, using the one in header

     gamma-point specific algorithms are used

     Subspace diagonalization in iterative solution of the eigenvalue problem:
     one sub-group per band group will be used
     scalapack distributed-memory algorithm (size of sub-group:  6*  6 procs)

     Found symmetry operation: I + (  0.5000  0.5000  0.5000)
     This is a supercell, fractional translations are disabled
     Message from routine setup:
     using ibrav=0 with symmetry is DISCOURAGED, use correct ibrav instead

     Parallelization info
     --------------------
     sticks:   dense  smooth     PW     G-vecs:    dense   smooth      PW
     Min         346     346     85                32450    32450    4054
     Max         348     348     88                32462    32462    4068
     Sum       16613   16613   4165              1557881  1557881  194819



     bravais-lattice index     =            0
     lattice parameter (alat)  =      24.7911  a.u.
     unit-cell volume          =   14715.3804 (a.u.)^3
     number of atoms/cell      =          192
     number of atomic types    =            4
     number of electrons       =      1200.00
     number of Kohn-Sham states=          720
     kinetic-energy cutoff     =      85.0000  Ry
     charge density cutoff     =     340.0000  Ry
     scf convergence threshold =      1.0E-06
     mixing beta               =       0.7000
     number of iterations used =            8  plain     mixing
     Exchange-correlation= PBE
                           (   1   4   3   4   0   0   0)

     celldm(1)=  24.791128  celldm(2)=   0.000000  celldm(3)=   0.000000
     celldm(4)=   0.000000  celldm(5)=   0.000000  celldm(6)=   0.000000

     crystal axes: (cart. coord. in units of alat)
               a(1) = (   1.000000   0.000000   0.000000 )  
               a(2) = (   0.000000   1.000000   0.000000 )  
               a(3) = (   0.000000   0.000000   0.965790 )  

     reciprocal axes: (cart. coord. in units 2 pi/alat)
               b(1) = (  1.000000  0.000000  0.000000 )  
               b(2) = (  0.000000  1.000000  0.000000 )  
               b(3) = (  0.000000  0.000000  1.035422 )  


     PseudoPot. # 1 for Li read from file:
     /home/kartickr/QuantumEspresso_runs/pseudo/Li.upf
     MD5 check sum: dbcf0ea72988e720c8c712b432d51b0d
     Pseudo is Norm-conserving, Zval =  3.0
     Generated using ONCVPSP code by D. R. Hamann
     Using radial grid of 1944 points,  4 beta functions with: 
                l(1) =   0
                l(2) =   0
                l(3) =   1
                l(4) =   1

     PseudoPot. # 2 for O  read from file:
     /home/kartickr/QuantumEspresso_runs/pseudo/O.upf
     MD5 check sum: 3e3f909f7470e8921608ab6b1f57bbae
     Pseudo is Norm-conserving + core correction, Zval =  6.0
     Generated using ONCVPSP code by D. R. Hamann
     Using radial grid of  936 points,  5 beta functions with: 
                l(1) =   0
                l(2) =   0
                l(3) =   1
                l(4) =   1
                l(5) =   2

     PseudoPot. # 3 for La read from file:
     /home/kartickr/QuantumEspresso_runs/pseudo/La.upf
     MD5 check sum: cd9f961d044315b77468ddb00b57bfe4
     Pseudo is Norm-conserving + core correction, Zval = 11.0
     Generated using ONCVPSP code by D. R. Hamann
     Using radial grid of 1812 points,  8 beta functions with: 
                l(1) =   0
                l(2) =   0
                l(3) =   1
                l(4) =   1
                l(5) =   2
                l(6) =   2
                l(7) =   3
                l(8) =   3

     PseudoPot. # 4 for Zr read from file:
     /home/kartickr/QuantumEspresso_runs/pseudo/Zr.upf
     MD5 check sum: 8ea2969ae37cb4187a0232e4a563b421
     Pseudo is Norm-conserving + core correction, Zval = 12.0
     Generated using ONCVPSP code by D. R. Hamann
     Using radial grid of 1622 points,  6 beta functions with: 
                l(1) =   0
                l(2) =   0
                l(3) =   1
                l(4) =   1
                l(5) =   2
                l(6) =   2

     atomic species   valence    mass     pseudopotential
        Li             3.00     9.00000     Li( 1.00)
        O              6.00    16.00000     O ( 1.00)
        La            11.00   138.00000     La( 1.00)
        Zr            12.00    91.24000     Zr( 1.00)

     Starting magnetic structure 
     atomic species   magnetization
        Li           0.330
        O            0.167
        La           0.090
        Zr           0.167

      2 Sym. Ops., with inversion, found



   Cartesian axes

     site n.     atom                  positions (alat units)
         1           La  tau(   1) = (   0.5000000   0.7500000   0.6036186  )
         2           La  tau(   2) = (   0.5000000   0.7500000   0.1207237  )
         3           La  tau(   3) = (   0.0000000   0.7500000   0.8450661  )
         4           La  tau(   4) = (   0.0000000   0.7500000   0.3621712  )
         5           La  tau(   5) = (   0.5000000   0.2500000   0.3621712  )
         6           La  tau(   6) = (   0.5000000   0.2500000   0.8450661  )
         7           La  tau(   7) = (   0.0000000   0.2500000   0.1207237  )
         8           La  tau(   8) = (   0.0000000   0.2500000   0.6036186  )
         9           La  tau(   9) = (   0.2500000   0.8773000   0.4828949  )
        10           La  tau(  10) = (   0.7500000   0.8773000   0.0000000  )
        11           La  tau(  11) = (   0.1273000   0.5000000   0.7243424  )
        12           La  tau(  12) = (   0.8727000   0.5000000   0.2414475  )
        13           La  tau(  13) = (   0.7500000   0.1227000   0.4828949  )
        14           La  tau(  14) = (   0.2500000   0.1227000   0.0000000  )
        15           La  tau(  15) = (   0.2500000   0.6227000   0.0000000  )
        16           La  tau(  16) = (   0.7500000   0.6227000   0.4828949  )
        17           La  tau(  17) = (   0.1273000   0.0000000   0.2414475  )
        18           La  tau(  18) = (   0.8727000   0.0000000   0.7243424  )
        19           La  tau(  19) = (   0.7500000   0.3773000   0.0000000  )
        20           La  tau(  20) = (   0.2500000   0.3773000   0.4828949  )
        21           La  tau(  21) = (   0.6273000   0.0000000   0.2414475  )
        22           La  tau(  22) = (   0.3727000   0.0000000   0.7243424  )
        23           La  tau(  23) = (   0.6273000   0.5000000   0.7243424  )
        24           La  tau(  24) = (   0.3727000   0.5000000   0.2414475  )
        25           Zr  tau(  25) = (   0.2500000   0.7500000   0.7243424  )
        26           Zr  tau(  26) = (   0.7500000   0.7500000   0.2414475  )
        27           Zr  tau(  27) = (   0.0000000   0.5000000   0.0000000  )
        28           Zr  tau(  28) = (   0.0000000   0.5000000   0.4828949  )
        29           Zr  tau(  29) = (   0.7500000   0.2500000   0.2414475  )
        30           Zr  tau(  30) = (   0.2500000   0.2500000   0.7243424  )
        31           Zr  tau(  31) = (   0.2500000   0.7500000   0.2414475  )
        32           Zr  tau(  32) = (   0.7500000   0.7500000   0.7243424  )
        33           Zr  tau(  33) = (   0.0000000   0.0000000   0.4828949  )
        34           Zr  tau(  34) = (   0.0000000   0.0000000   0.0000000  )
        35           Zr  tau(  35) = (   0.7500000   0.2500000   0.7243424  )
        36           Zr  tau(  36) = (   0.2500000   0.2500000   0.2414475  )
        37           Zr  tau(  37) = (   0.5000000   0.0000000   0.4828949  )
        38           Zr  tau(  38) = (   0.5000000   0.0000000   0.0000000  )
        39           Zr  tau(  39) = (   0.5000000   0.5000000   0.0000000  )
        40           Zr  tau(  40) = (   0.5000000   0.5000000   0.4828949  )
        41           Li  tau(  41) = (   0.5000000   0.7500000   0.3621712  )
        42           Li  tau(  42) = (   0.5000000   0.7500000   0.8450661  )
        43           Li  tau(  43) = (   0.0000000   0.7500000   0.6036186  )
        44           Li  tau(  44) = (   0.0000000   0.7500000   0.1207237  )
        45           Li  tau(  45) = (   0.5000000   0.2500000   0.6036186  )
        46           Li  tau(  46) = (   0.5000000   0.2500000   0.1207237  )
        47           Li  tau(  47) = (   0.0000000   0.2500000   0.3621712  )
        48           Li  tau(  48) = (   0.0000000   0.2500000   0.8450661  )
        49           Li  tau(  49) = (   0.6774000   0.9274000   0.6036186  )
        50           Li  tau(  50) = (   0.3226000   0.9274000   0.1207237  )
        51           Li  tau(  51) = (   0.1774000   0.9274000   0.8450661  )
        52           Li  tau(  52) = (   0.8226000   0.9274000   0.3621712  )
        53           Li  tau(  53) = (   0.3226000   0.0726000   0.3621712  )
        54           Li  tau(  54) = (   0.6774000   0.0726000   0.8450661  )
        55           Li  tau(  55) = (   0.8226000   0.0726000   0.1207237  )
        56           Li  tau(  56) = (   0.1774000   0.0726000   0.6036186  )
        57           Li  tau(  57) = (   0.6774000   0.5726000   0.1207237  )
        58           Li  tau(  58) = (   0.3226000   0.5726000   0.6036186  )
        59           Li  tau(  59) = (   0.1774000   0.5726000   0.3621712  )
        60           Li  tau(  60) = (   0.8226000   0.5726000   0.8450661  )
        61           Li  tau(  61) = (   0.3226000   0.4274000   0.8450661  )
        62           Li  tau(  62) = (   0.6774000   0.4274000   0.3621712  )
        63           Li  tau(  63) = (   0.8226000   0.4274000   0.6036186  )
        64           Li  tau(  64) = (   0.1774000   0.4274000   0.1207237  )
        65           Li  tau(  65) = (   0.3370000   0.8300000   0.9127680  )
        66           Li  tau(  66) = (   0.6630000   0.8300000   0.4298730  )
        67           Li  tau(  67) = (   0.0800000   0.5870000   0.1884256  )
        68           Li  tau(  68) = (   0.9200000   0.5870000   0.6713205  )
        69           Li  tau(  69) = (   0.6630000   0.1700000   0.0530219  )
        70           Li  tau(  70) = (   0.3370000   0.1700000   0.5359168  )
        71           Li  tau(  71) = (   0.9200000   0.4130000   0.7773642  )
        72           Li  tau(  72) = (   0.0800000   0.4130000   0.2944693  )
        73           Li  tau(  73) = (   0.3370000   0.6700000   0.4298730  )
        74           Li  tau(  74) = (   0.6630000   0.6700000   0.9127680  )
        75           Li  tau(  75) = (   0.0800000   0.9130000   0.6713205  )
        76           Li  tau(  76) = (   0.9200000   0.9130000   0.1884256  )
        77           Li  tau(  77) = (   0.6630000   0.3300000   0.5359168  )
        78           Li  tau(  78) = (   0.3370000   0.3300000   0.0530219  )
        79           Li  tau(  79) = (   0.9200000   0.0870000   0.2944693  )
        80           Li  tau(  80) = (   0.0800000   0.0870000   0.7773642  )
        81           Li  tau(  81) = (   0.8370000   0.3300000   0.4298730  )
        82           Li  tau(  82) = (   0.1630000   0.3300000   0.9127680  )
        83           Li  tau(  83) = (   0.5800000   0.0870000   0.6713205  )
        84           Li  tau(  84) = (   0.4200000   0.0870000   0.1884256  )
        85           Li  tau(  85) = (   0.1630000   0.6700000   0.5359168  )
        86           Li  tau(  86) = (   0.8370000   0.6700000   0.0530219  )
        87           Li  tau(  87) = (   0.4200000   0.9130000   0.2944693  )
        88           Li  tau(  88) = (   0.5800000   0.9130000   0.7773642  )
        89           Li  tau(  89) = (   0.8370000   0.1700000   0.9127680  )
        90           Li  tau(  90) = (   0.1630000   0.1700000   0.4298730  )
        91           Li  tau(  91) = (   0.5800000   0.4130000   0.1884256  )
        92           Li  tau(  92) = (   0.4200000   0.4130000   0.6713205  )
        93           Li  tau(  93) = (   0.1630000   0.8300000   0.0530219  )
        94           Li  tau(  94) = (   0.8370000   0.8300000   0.5359168  )
        95           Li  tau(  95) = (   0.4200000   0.5870000   0.7773642  )
        96           Li  tau(  96) = (   0.5800000   0.5870000   0.2944693  )
        97           O   tau(  97) = (   0.3051000   0.7160000   0.5778320  )
        98           O   tau(  98) = (   0.6949000   0.7160000   0.0949371  )
        99           O   tau(  99) = (   0.9660000   0.5551000   0.8192795  )
       100           O   tau( 100) = (   0.0340000   0.5551000   0.3363846  )
       101           O   tau( 101) = (   0.6949000   0.2840000   0.3879578  )
       102           O   tau( 102) = (   0.3051000   0.2840000   0.8708527  )
       103           O   tau( 103) = (   0.0340000   0.4449000   0.1465103  )
       104           O   tau( 104) = (   0.9660000   0.4449000   0.6294052  )
       105           O   tau( 105) = (   0.3051000   0.7840000   0.0949371  )
       106           O   tau( 106) = (   0.6949000   0.7840000   0.5778320  )
       107           O   tau( 107) = (   0.9660000   0.9449000   0.3363846  )
       108           O   tau( 108) = (   0.0340000   0.9449000   0.8192795  )
       109           O   tau( 109) = (   0.6949000   0.2160000   0.8708527  )
       110           O   tau( 110) = (   0.3051000   0.2160000   0.3879578  )
       111           O   tau( 111) = (   0.0340000   0.0551000   0.6294052  )
       112           O   tau( 112) = (   0.9660000   0.0551000   0.1465103  )
       113           O   tau( 113) = (   0.8051000   0.2160000   0.0949371  )
       114           O   tau( 114) = (   0.1949000   0.2160000   0.5778320  )
       115           O   tau( 115) = (   0.4660000   0.0551000   0.3363846  )
       116           O   tau( 116) = (   0.5340000   0.0551000   0.8192795  )
       117           O   tau( 117) = (   0.1949000   0.7840000   0.8708527  )
       118           O   tau( 118) = (   0.8051000   0.7840000   0.3879578  )
       119           O   tau( 119) = (   0.5340000   0.9449000   0.6294052  )
       120           O   tau( 120) = (   0.4660000   0.9449000   0.1465103  )
       121           O   tau( 121) = (   0.8051000   0.2840000   0.5778320  )
       122           O   tau( 122) = (   0.1949000   0.2840000   0.0949371  )
       123           O   tau( 123) = (   0.4660000   0.4449000   0.8192795  )
       124           O   tau( 124) = (   0.5340000   0.4449000   0.3363846  )
       125           O   tau( 125) = (   0.1949000   0.7160000   0.3879578  )
       126           O   tau( 126) = (   0.8051000   0.7160000   0.8708527  )
       127           O   tau( 127) = (   0.5340000   0.5551000   0.1465103  )
       128           O   tau( 128) = (   0.4660000   0.5551000   0.6294052  )
       129           O   tau( 129) = (   0.1019000   0.8043000   0.2091901  )
       130           O   tau( 130) = (   0.8981000   0.8043000   0.6920850  )
       131           O   tau( 131) = (   0.0543000   0.3519000   0.4506375  )
       132           O   tau( 132) = (   0.9457000   0.3519000   0.9335324  )
       133           O   tau( 133) = (   0.8981000   0.1957000   0.7565997  )
       134           O   tau( 134) = (   0.1019000   0.1957000   0.2737048  )
       135           O   tau( 135) = (   0.9457000   0.6481000   0.5151523  )
       136           O   tau( 136) = (   0.0543000   0.6481000   0.0322574  )
       137           O   tau( 137) = (   0.1019000   0.6957000   0.6920850  )
       138           O   tau( 138) = (   0.8981000   0.6957000   0.2091901  )
       139           O   tau( 139) = (   0.0543000   0.1481000   0.9335324  )
       140           O   tau( 140) = (   0.9457000   0.1481000   0.4506375  )
       141           O   tau( 141) = (   0.8981000   0.3043000   0.2737048  )
       142           O   tau( 142) = (   0.1019000   0.3043000   0.7565997  )
       143           O   tau( 143) = (   0.9457000   0.8519000   0.0322574  )
       144           O   tau( 144) = (   0.0543000   0.8519000   0.5151523  )
       145           O   tau( 145) = (   0.6019000   0.3043000   0.6920850  )
       146           O   tau( 146) = (   0.3981000   0.3043000   0.2091901  )
       147           O   tau( 147) = (   0.5543000   0.8519000   0.9335324  )
       148           O   tau( 148) = (   0.4457000   0.8519000   0.4506375  )
       149           O   tau( 149) = (   0.3981000   0.6957000   0.2737048  )
       150           O   tau( 150) = (   0.6019000   0.6957000   0.7565997  )
       151           O   tau( 151) = (   0.4457000   0.1481000   0.0322574  )
       152           O   tau( 152) = (   0.5543000   0.1481000   0.5151523  )
       153           O   tau( 153) = (   0.6019000   0.1957000   0.2091901  )
       154           O   tau( 154) = (   0.3981000   0.1957000   0.6920850  )
       155           O   tau( 155) = (   0.5543000   0.6481000   0.4506375  )
       156           O   tau( 156) = (   0.4457000   0.6481000   0.9335324  )
       157           O   tau( 157) = (   0.3981000   0.8043000   0.7565997  )
       158           O   tau( 158) = (   0.6019000   0.8043000   0.2737048  )
       159           O   tau( 159) = (   0.4457000   0.3519000   0.5151523  )
       160           O   tau( 160) = (   0.5543000   0.3519000   0.0322574  )
       161           O   tau( 161) = (   0.2781000   0.8991000   0.2932138  )
       162           O   tau( 162) = (   0.7219000   0.8991000   0.7761087  )
       163           O   tau( 163) = (   0.1491000   0.5281000   0.5346612  )
       164           O   tau( 164) = (   0.8509000   0.5281000   0.0517663  )
       165           O   tau( 165) = (   0.7219000   0.1009000   0.6725760  )
       166           O   tau( 166) = (   0.2781000   0.1009000   0.1896811  )
       167           O   tau( 167) = (   0.8509000   0.4719000   0.4311286  )
       168           O   tau( 168) = (   0.1491000   0.4719000   0.9140235  )
       169           O   tau( 169) = (   0.2781000   0.6009000   0.7761087  )
       170           O   tau( 170) = (   0.7219000   0.6009000   0.2932138  )
       171           O   tau( 171) = (   0.1491000   0.9719000   0.0517663  )
       172           O   tau( 172) = (   0.8509000   0.9719000   0.5346612  )
       173           O   tau( 173) = (   0.7219000   0.3991000   0.1896811  )
       174           O   tau( 174) = (   0.2781000   0.3991000   0.6725760  )
       175           O   tau( 175) = (   0.8509000   0.0281000   0.9140235  )
       176           O   tau( 176) = (   0.1491000   0.0281000   0.4311286  )
       177           O   tau( 177) = (   0.7781000   0.3991000   0.7761087  )
       178           O   tau( 178) = (   0.2219000   0.3991000   0.2932138  )
       179           O   tau( 179) = (   0.6491000   0.0281000   0.0517663  )
       180           O   tau( 180) = (   0.3509000   0.0281000   0.5346612  )
       181           O   tau( 181) = (   0.2219000   0.6009000   0.1896811  )
       182           O   tau( 182) = (   0.7781000   0.6009000   0.6725760  )
       183           O   tau( 183) = (   0.3509000   0.9719000   0.9140235  )
       184           O   tau( 184) = (   0.6491000   0.9719000   0.4311286  )
       185           O   tau( 185) = (   0.7781000   0.1009000   0.2932138  )
       186           O   tau( 186) = (   0.2219000   0.1009000   0.7761087  )
       187           O   tau( 187) = (   0.6491000   0.4719000   0.5346612  )
       188           O   tau( 188) = (   0.3509000   0.4719000   0.0517663  )
       189           O   tau( 189) = (   0.2219000   0.8991000   0.6725760  )
       190           O   tau( 190) = (   0.7781000   0.8991000   0.1896811  )
       191           O   tau( 191) = (   0.3509000   0.5281000   0.4311286  )
       192           O   tau( 192) = (   0.6491000   0.5281000   0.9140235  )

     number of k points=     1  Fermi-Dirac smearing, width (Ry)=  0.0032
                       cart. coord. in units 2pi/alat
        k(    1) = (   0.0000000   0.0000000   0.0000000), wk =   1.0000000

     Dense  grid:   778941 G-vectors     FFT dimensions: ( 150, 150, 144)

     Estimated max dynamical RAM per process >     292.16 MB

     Estimated total dynamical RAM >      13.69 GB
     Generating pointlists ...
     new r_m :   0.0588 (alat units)  1.4581 (a.u.) for type    1
     new r_m :   0.0588 (alat units)  1.4581 (a.u.) for type    2
     new r_m :   0.0778 (alat units)  1.9295 (a.u.) for type    3
     new r_m :   0.0661 (alat units)  1.6380 (a.u.) for type    4

     Initial potential from superposition of free atoms

     starting charge 1199.49285, renormalised to 1200.00000
     Starting wfcs are  896 randomized atomic wfcs

     total cpu time spent up to now is       23.1 secs

     Self-consistent Calculation

     iteration #  1     ecut=    85.00 Ry     beta= 0.70
     Davidson diagonalization with overlap
     ethr =  1.00E-02,  avg # of iterations =  3.0

     total cpu time spent up to now is       73.6 secs

     total energy              =   -7284.07824743 Ry
     estimated scf accuracy    <      56.38199393 Ry

     total magnetization       =     0.00 Bohr mag/cell
     absolute magnetization    =    15.42 Bohr mag/cell

     iteration #  2     ecut=    85.00 Ry     beta= 0.70
     Davidson diagonalization with overlap
     ethr =  4.70E-03,  avg # of iterations =  4.0

     total cpu time spent up to now is      140.5 secs

     total energy              =   -7285.65550660 Ry
     estimated scf accuracy    <     116.54341196 Ry

     total magnetization       =     0.18 Bohr mag/cell
     absolute magnetization    =     9.01 Bohr mag/cell

     iteration #  3     ecut=    85.00 Ry     beta= 0.70
     Davidson diagonalization with overlap
     ethr =  4.70E-03,  avg # of iterations =  3.0

     total cpu time spent up to now is      195.8 secs

     total energy              =   -7310.02578902 Ry
     estimated scf accuracy    <       2.14430059 Ry

     total magnetization       =    -0.00 Bohr mag/cell
     absolute magnetization    =     6.61 Bohr mag/cell

     iteration #  4     ecut=    85.00 Ry     beta= 0.70
     Davidson diagonalization with overlap
     ethr =  1.79E-04,  avg # of iterations = 23.0

     total cpu time spent up to now is      357.5 secs

     total energy              =   -7311.00083639 Ry
     estimated scf accuracy    <       0.79673960 Ry

     total magnetization       =     0.00 Bohr mag/cell
     absolute magnetization    =     4.28 Bohr mag/cell

     iteration #  5     ecut=    85.00 Ry     beta= 0.70
     Davidson diagonalization with overlap
     ethr =  6.64E-05,  avg # of iterations = 15.0

     total cpu time spent up to now is      431.6 secs

     total energy              =   -7311.11938474 Ry
     estimated scf accuracy    <       0.09085196 Ry

     total magnetization       =    -0.00 Bohr mag/cell
     absolute magnetization    =     1.47 Bohr mag/cell

     iteration #  6     ecut=    85.00 Ry     beta= 0.70
     Davidson diagonalization with overlap
     c_bands:  2 eigenvalues not converged
     ethr =  7.57E-06,  avg # of iterations = 51.0

     total cpu time spent up to now is      689.0 secs

     total energy              =   -7311.17533624 Ry
     estimated scf accuracy    <       0.01520070 Ry

     total magnetization       =    -0.00 Bohr mag/cell
     absolute magnetization    =     1.13 Bohr mag/cell

     iteration #  7     ecut=    85.00 Ry     beta= 0.70
     Davidson diagonalization with overlap
     c_bands:  2 eigenvalues not converged
     ethr =  1.27E-06,  avg # of iterations = 61.0

     total cpu time spent up to now is      934.2 secs

     total energy              =   -7311.17849857 Ry
     estimated scf accuracy    <       0.00119227 Ry

     total magnetization       =    -0.00 Bohr mag/cell
     absolute magnetization    =     0.73 Bohr mag/cell

     iteration #  8     ecut=    85.00 Ry     beta= 0.70
     Davidson diagonalization with overlap
     c_bands:  1 eigenvalues not converged
     ethr =  9.94E-08,  avg # of iterations = 23.0

     total cpu time spent up to now is     1030.1 secs

     total energy              =   -7311.17890971 Ry
     estimated scf accuracy    <       0.00016433 Ry

     total magnetization       =    -0.00 Bohr mag/cell
     absolute magnetization    =     0.39 Bohr mag/cell

     iteration #  9     ecut=    85.00 Ry     beta= 0.70
     Davidson diagonalization with overlap
     c_bands:  2 eigenvalues not converged
     c_bands:  4 eigenvalues not converged
     ethr =  1.37E-08,  avg # of iterations = 60.0

     total cpu time spent up to now is     1230.5 secs

     total energy              =   -7311.17899978 Ry
     estimated scf accuracy    <       0.00006925 Ry

     total magnetization       =     0.00 Bohr mag/cell
     absolute magnetization    =     0.21 Bohr mag/cell

     iteration # 10     ecut=    85.00 Ry     beta= 0.70
     Davidson diagonalization with overlap
     c_bands:  5 eigenvalues not converged
     ethr =  5.77E-09,  avg # of iterations = 12.0

     total cpu time spent up to now is     1302.1 secs

     total energy              =   -7311.17902451 Ry
     estimated scf accuracy    <       0.00003661 Ry

     total magnetization       =     0.00 Bohr mag/cell
     absolute magnetization    =     0.12 Bohr mag/cell

     iteration # 11     ecut=    85.00 Ry     beta= 0.70
     Davidson diagonalization with overlap
     c_bands:  1 eigenvalues not converged
     ethr =  3.05E-09,  avg # of iterations = 12.5

     total cpu time spent up to now is     1368.4 secs

     total energy              =   -7311.17903468 Ry
     estimated scf accuracy    <       0.00000467 Ry

     total magnetization       =     0.00 Bohr mag/cell
     absolute magnetization    =     0.05 Bohr mag/cell

     iteration # 12     ecut=    85.00 Ry     beta= 0.70
     Davidson diagonalization with overlap
     ethr =  3.89E-10,  avg # of iterations =  6.5

     total cpu time spent up to now is     1438.6 secs

     total energy              =   -7311.17903623 Ry
     estimated scf accuracy    <       0.00000235 Ry

     total magnetization       =     0.00 Bohr mag/cell
     absolute magnetization    =     0.02 Bohr mag/cell

     iteration # 13     ecut=    85.00 Ry     beta= 0.70
     Davidson diagonalization with overlap
     ethr =  1.96E-10,  avg # of iterations =  3.5

     Magnetic moment per site:
     atom:    1    charge:    6.5744    magn:   -0.0000    constr:    0.0000
     atom:    2    charge:    6.5744    magn:   -0.0000    constr:    0.0000
     atom:    3    charge:    6.5744    magn:   -0.0000    constr:    0.0000
     atom:    4    charge:    6.5744    magn:   -0.0000    constr:    0.0000
     atom:    5    charge:    6.5744    magn:   -0.0000    constr:    0.0000
     atom:    6    charge:    6.5744    magn:   -0.0000    constr:    0.0000
     atom:    7    charge:    6.5744    magn:   -0.0000    constr:    0.0000
     atom:    8    charge:    6.5744    magn:   -0.0000    constr:    0.0000
     atom:    9    charge:    6.5861    magn:   -0.0000    constr:    0.0000
     atom:   10    charge:    6.5861    magn:   -0.0000    constr:    0.0000
     atom:   11    charge:    6.5855    magn:   -0.0000    constr:    0.0000
     atom:   12    charge:    6.5855    magn:   -0.0000    constr:    0.0000
     atom:   13    charge:    6.5861    magn:   -0.0000    constr:    0.0000
     atom:   14    charge:    6.5861    magn:   -0.0000    constr:    0.0000
     atom:   15    charge:    6.5861    magn:   -0.0000    constr:    0.0000
     atom:   16    charge:    6.5861    magn:   -0.0000    constr:    0.0000
     atom:   17    charge:    6.5855    magn:   -0.0000    constr:    0.0000
     atom:   18    charge:    6.5855    magn:   -0.0000    constr:    0.0000
     atom:   19    charge:    6.5861    magn:   -0.0000    constr:    0.0000
     atom:   20    charge:    6.5861    magn:   -0.0000    constr:    0.0000
     atom:   21    charge:    6.5855    magn:   -0.0000    constr:    0.0000
     atom:   22    charge:    6.5855    magn:   -0.0000    constr:    0.0000
     atom:   23    charge:    6.5855    magn:   -0.0000    constr:    0.0000
     atom:   24    charge:    6.5855    magn:   -0.0000    constr:    0.0000
     atom:   25    charge:    7.5745    magn:   -0.0000    constr:    0.0000
     atom:   26    charge:    7.5745    magn:   -0.0000    constr:    0.0000
     atom:   27    charge:    7.5752    magn:   -0.0000    constr:    0.0000
     atom:   28    charge:    7.5752    magn:   -0.0000    constr:    0.0000
     atom:   29    charge:    7.5745    magn:   -0.0000    constr:    0.0000
     atom:   30    charge:    7.5745    magn:   -0.0000    constr:    0.0000
     atom:   31    charge:    7.5745    magn:   -0.0000    constr:    0.0000
     atom:   32    charge:    7.5745    magn:   -0.0000    constr:    0.0000
     atom:   33    charge:    7.5752    magn:   -0.0000    constr:    0.0000
     atom:   34    charge:    7.5752    magn:   -0.0000    constr:    0.0000
     atom:   35    charge:    7.5745    magn:   -0.0000    constr:    0.0000
     atom:   36    charge:    7.5745    magn:   -0.0000    constr:    0.0000
     atom:   37    charge:    7.5752    magn:   -0.0000    constr:    0.0000
     atom:   38    charge:    7.5752    magn:   -0.0000    constr:    0.0000
     atom:   39    charge:    7.5752    magn:   -0.0000    constr:    0.0000
     atom:   40    charge:    7.5752    magn:   -0.0000    constr:    0.0000
     atom:   41    charge:    2.1583    magn:   -0.0000    constr:    0.0000
     atom:   42    charge:    2.1583    magn:   -0.0000    constr:    0.0000
     atom:   43    charge:    2.1583    magn:   -0.0000    constr:    0.0000
     atom:   44    charge:    2.1583    magn:   -0.0000    constr:    0.0000
     atom:   45    charge:    2.1583    magn:   -0.0000    constr:    0.0000
     atom:   46    charge:    2.1583    magn:   -0.0000    constr:    0.0000
     atom:   47    charge:    2.1583    magn:   -0.0000    constr:    0.0000
     atom:   48    charge:    2.1583    magn:   -0.0000    constr:    0.0000
     atom:   49    charge:    2.1025    magn:   -0.0000    constr:    0.0000
     atom:   50    charge:    2.1025    magn:   -0.0000    constr:    0.0000
     atom:   51    charge:    2.1025    magn:   -0.0000    constr:    0.0000
     atom:   52    charge:    2.1025    magn:   -0.0000    constr:    0.0000
     atom:   53    charge:    2.1025    magn:   -0.0000    constr:    0.0000
     atom:   54    charge:    2.1025    magn:   -0.0000    constr:    0.0000
     atom:   55    charge:    2.1025    magn:   -0.0000    constr:    0.0000
     atom:   56    charge:    2.1025    magn:   -0.0000    constr:    0.0000
     atom:   57    charge:    2.1025    magn:   -0.0000    constr:    0.0000
     atom:   58    charge:    2.1025    magn:   -0.0000    constr:    0.0000
     atom:   59    charge:    2.1025    magn:   -0.0000    constr:    0.0000
     atom:   60    charge:    2.1025    magn:   -0.0000    constr:    0.0000
     atom:   61    charge:    2.1025    magn:   -0.0000    constr:    0.0000
     atom:   62    charge:    2.1025    magn:   -0.0000    constr:    0.0000
     atom:   63    charge:    2.1025    magn:   -0.0000    constr:    0.0000
     atom:   64    charge:    2.1025    magn:   -0.0000    constr:    0.0000
     atom:   65    charge:    2.1112    magn:   -0.0000    constr:    0.0000
     atom:   66    charge:    2.1112    magn:   -0.0000    constr:    0.0000
     atom:   67    charge:    2.1113    magn:   -0.0000    constr:    0.0000
     atom:   68    charge:    2.1113    magn:   -0.0000    constr:    0.0000
     atom:   69    charge:    2.1112    magn:   -0.0000    constr:    0.0000
     atom:   70    charge:    2.1112    magn:   -0.0000    constr:    0.0000
     atom:   71    charge:    2.1113    magn:   -0.0000    constr:    0.0000
     atom:   72    charge:    2.1113    magn:   -0.0000    constr:    0.0000
     atom:   73    charge:    2.1112    magn:   -0.0000    constr:    0.0000
     atom:   74    charge:    2.1112    magn:   -0.0000    constr:    0.0000
     atom:   75    charge:    2.1113    magn:   -0.0000    constr:    0.0000
     atom:   76    charge:    2.1113    magn:   -0.0000    constr:    0.0000
     atom:   77    charge:    2.1112    magn:   -0.0000    constr:    0.0000
     atom:   78    charge:    2.1112    magn:   -0.0000    constr:    0.0000
     atom:   79    charge:    2.1113    magn:   -0.0000    constr:    0.0000
     atom:   80    charge:    2.1113    magn:   -0.0000    constr:    0.0000
     atom:   81    charge:    2.1112    magn:   -0.0000    constr:    0.0000
     atom:   82    charge:    2.1112    magn:   -0.0000    constr:    0.0000
     atom:   83    charge:    2.1113    magn:   -0.0000    constr:    0.0000
     atom:   84    charge:    2.1113    magn:   -0.0000    constr:    0.0000
     atom:   85    charge:    2.1112    magn:   -0.0000    constr:    0.0000
     atom:   86    charge:    2.1112    magn:   -0.0000    constr:    0.0000
     atom:   87    charge:    2.1113    magn:   -0.0000    constr:    0.0000
     atom:   88    charge:    2.1113    magn:   -0.0000    constr:    0.0000
     atom:   89    charge:    2.1112    magn:   -0.0000    constr:    0.0000
     atom:   90    charge:    2.1112    magn:   -0.0000    constr:    0.0000
     atom:   91    charge:    2.1113    magn:   -0.0000    constr:    0.0000
     atom:   92    charge:    2.1113    magn:   -0.0000    constr:    0.0000
     atom:   93    charge:    2.1112    magn:   -0.0000    constr:    0.0000
     atom:   94    charge:    2.1112    magn:   -0.0000    constr:    0.0000
     atom:   95    charge:    2.1113    magn:   -0.0000    constr:    0.0000
     atom:   96    charge:    2.1113    magn:   -0.0000    constr:    0.0000
     atom:   97    charge:    5.2029    magn:    0.0001    constr:    0.0000
     atom:   98    charge:    5.2029    magn:    0.0001    constr:    0.0000
     atom:   99    charge:    5.2029    magn:    0.0001    constr:    0.0000
     atom:  100    charge:    5.2029    magn:    0.0001    constr:    0.0000
     atom:  101    charge:    5.2029    magn:    0.0001    constr:    0.0000
     atom:  102    charge:    5.2029    magn:    0.0001    constr:    0.0000
     atom:  103    charge:    5.2029    magn:    0.0001    constr:    0.0000
     atom:  104    charge:    5.2029    magn:    0.0000    constr:    0.0000
     atom:  105    charge:    5.2029    magn:    0.0000    constr:    0.0000
     atom:  106    charge:    5.2029    magn:    0.0001    constr:    0.0000
     atom:  107    charge:    5.2029    magn:    0.0001    constr:    0.0000
     atom:  108    charge:    5.2029    magn:    0.0000    constr:    0.0000
     atom:  109    charge:    5.2029    magn:    0.0001    constr:    0.0000
     atom:  110    charge:    5.2029    magn:    0.0001    constr:    0.0000
     atom:  111    charge:    5.2029    magn:    0.0000    constr:    0.0000
     atom:  112    charge:    5.2029    magn:    0.0001    constr:    0.0000
     atom:  113    charge:    5.2029    magn:    0.0001    constr:    0.0000
     atom:  114    charge:    5.2029    magn:    0.0001    constr:    0.0000
     atom:  115    charge:    5.2029    magn:    0.0000    constr:    0.0000
     atom:  116    charge:    5.2029    magn:    0.0001    constr:    0.0000
     atom:  117    charge:    5.2029    magn:    0.0000    constr:    0.0000
     atom:  118    charge:    5.2029    magn:    0.0001    constr:    0.0000
     atom:  119    charge:    5.2029    magn:    0.0001    constr:    0.0000
     atom:  120    charge:    5.2029    magn:    0.0001    constr:    0.0000
     atom:  121    charge:    5.2029    magn:    0.0001    constr:    0.0000
     atom:  122    charge:    5.2029    magn:    0.0001    constr:    0.0000
     atom:  123    charge:    5.2029    magn:    0.0001    constr:    0.0000
     atom:  124    charge:    5.2029    magn:    0.0000    constr:    0.0000
     atom:  125    charge:    5.2029    magn:    0.0001    constr:    0.0000
     atom:  126    charge:    5.2029    magn:    0.0001    constr:    0.0000
     atom:  127    charge:    5.2029    magn:    0.0001    constr:    0.0000
     atom:  128    charge:    5.2029    magn:    0.0000    constr:    0.0000
     atom:  129    charge:    5.1734    magn:    0.0001    constr:    0.0000
     atom:  130    charge:    5.1734    magn:    0.0001    constr:    0.0000
     atom:  131    charge:    5.1731    magn:    0.0001    constr:    0.0000
     atom:  132    charge:    5.1731    magn:    0.0001    constr:    0.0000
     atom:  133    charge:    5.1734    magn:    0.0001    constr:    0.0000
     atom:  134    charge:    5.1734    magn:    0.0001    constr:    0.0000
     atom:  135    charge:    5.1731    magn:    0.0001    constr:    0.0000
     atom:  136    charge:    5.1731    magn:    0.0001    constr:    0.0000
     atom:  137    charge:    5.1734    magn:    0.0001    constr:    0.0000
     atom:  138    charge:    5.1734    magn:    0.0001    constr:    0.0000
     atom:  139    charge:    5.1731    magn:    0.0001    constr:    0.0000
     atom:  140    charge:    5.1731    magn:    0.0001    constr:    0.0000
     atom:  141    charge:    5.1734    magn:    0.0001    constr:    0.0000
     atom:  142    charge:    5.1734    magn:    0.0001    constr:    0.0000
     atom:  143    charge:    5.1731    magn:    0.0001    constr:    0.0000
     atom:  144    charge:    5.1731    magn:    0.0001    constr:    0.0000
     atom:  145    charge:    5.1734    magn:    0.0001    constr:    0.0000
     atom:  146    charge:    5.1734    magn:    0.0001    constr:    0.0000
     atom:  147    charge:    5.1731    magn:    0.0001    constr:    0.0000
     atom:  148    charge:    5.1731    magn:    0.0001    constr:    0.0000
     atom:  149    charge:    5.1733    magn:    0.0001    constr:    0.0000
     atom:  150    charge:    5.1734    magn:    0.0001    constr:    0.0000
     atom:  151    charge:    5.1731    magn:    0.0001    constr:    0.0000
     atom:  152    charge:    5.1731    magn:    0.0001    constr:    0.0000
     atom:  153    charge:    5.1734    magn:    0.0001    constr:    0.0000
     atom:  154    charge:    5.1734    magn:    0.0001    constr:    0.0000
     atom:  155    charge:    5.1731    magn:    0.0001    constr:    0.0000
     atom:  156    charge:    5.1731    magn:    0.0001    constr:    0.0000
     atom:  157    charge:    5.1734    magn:    0.0001    constr:    0.0000
     atom:  158    charge:    5.1734    magn:    0.0001    constr:    0.0000
     atom:  159    charge:    5.1731    magn:    0.0001    constr:    0.0000
     atom:  160    charge:    5.1731    magn:    0.0001    constr:    0.0000
     atom:  161    charge:    5.1931    magn:    0.0001    constr:    0.0000
     atom:  162    charge:    5.1930    magn:    0.0001    constr:    0.0000
     atom:  163    charge:    5.1932    magn:    0.0001    constr:    0.0000
     atom:  164    charge:    5.1932    magn:    0.0001    constr:    0.0000
     atom:  165    charge:    5.1930    magn:    0.0001    constr:    0.0000
     atom:  166    charge:    5.1931    magn:    0.0001    constr:    0.0000
     atom:  167    charge:    5.1932    magn:    0.0001    constr:    0.0000
     atom:  168    charge:    5.1932    magn:    0.0001    constr:    0.0000
     atom:  169    charge:    5.1930    magn:    0.0001    constr:    0.0000
     atom:  170    charge:    5.1930    magn:    0.0001    constr:    0.0000
     atom:  171    charge:    5.1932    magn:    0.0001    constr:    0.0000
     atom:  172    charge:    5.1932    magn:    0.0001    constr:    0.0000
     atom:  173    charge:    5.1930    magn:    0.0001    constr:    0.0000
     atom:  174    charge:    5.1930    magn:    0.0001    constr:    0.0000
     atom:  175    charge:    5.1932    magn:    0.0001    constr:    0.0000
     atom:  176    charge:    5.1932    magn:    0.0001    constr:    0.0000
     atom:  177    charge:    5.1931    magn:    0.0001    constr:    0.0000
     atom:  178    charge:    5.1930    magn:    0.0001    constr:    0.0000
     atom:  179    charge:    5.1932    magn:    0.0001    constr:    0.0000
     atom:  180    charge:    5.1932    magn:    0.0001    constr:    0.0000
     atom:  181    charge:    5.1930    magn:    0.0001    constr:    0.0000
     atom:  182    charge:    5.1931    magn:    0.0001    constr:    0.0000
     atom:  183    charge:    5.1932    magn:    0.0001    constr:    0.0000
     atom:  184    charge:    5.1932    magn:    0.0001    constr:    0.0000
     atom:  185    charge:    5.1930    magn:    0.0001    constr:    0.0000
     atom:  186    charge:    5.1931    magn:    0.0001    constr:    0.0000
     atom:  187    charge:    5.1932    magn:    0.0001    constr:    0.0000
     atom:  188    charge:    5.1932    magn:    0.0001    constr:    0.0000
     atom:  189    charge:    5.1931    magn:    0.0001    constr:    0.0000
     atom:  190    charge:    5.1931    magn:    0.0001    constr:    0.0000
     atom:  191    charge:    5.1932    magn:    0.0001    constr:    0.0000
     atom:  192    charge:    5.1932    magn:    0.0001    constr:    0.0000

     total cpu time spent up to now is     1493.7 secs

     End of self-consistent calculation

 ------ SPIN UP ------------


          k = 0.0000 0.0000 0.0000 ( 97410 PWs)   bands (ev):

   -38.5949 -38.5948 -38.5948 -38.5947 -38.5946 -38.5946 -38.5946 -38.5945
   -38.5945 -38.5945 -38.5945 -38.5945 -38.5945 -38.5945 -38.5944 -38.5944
   -35.1734 -35.1733 -35.1732 -35.1731 -35.1715 -35.1715 -35.1714 -35.1714
   -35.1713 -35.1713 -35.1712 -35.1712 -35.1696 -35.1695 -35.1694 -35.1693
   -34.9568 -34.9561 -34.9560 -34.9557 -34.9549 -34.9547 -34.9547 -34.9546
   -34.9545 -34.9545 -34.9544 -34.9543 -34.9535 -34.9530 -34.9528 -34.9527
   -34.9418 -34.9416 -34.9414 -34.9412 -34.9412 -34.9412 -34.9411 -34.9411
   -34.9411 -34.9410 -34.9410 -34.9409 -34.9408 -34.9407 -34.9407 -34.9406
   -33.8105 -33.8105 -33.8104 -33.8102 -33.8102 -33.8101 -33.8101 -33.8099
   -21.5902 -21.5864 -21.5805 -21.5804 -21.5802 -21.5801 -21.5763 -21.5742
   -21.5070 -21.5070 -21.4951 -21.4920 -21.4751 -21.4751 -21.4724 -21.4724
   -21.4687 -21.4687 -21.4684 -21.4684 -21.4407 -21.4401 -21.4400 -21.4394
   -16.9378 -16.9376 -16.9375 -16.9374 -16.9368 -16.9367 -16.9363 -16.9362
   -16.9361 -16.9358 -16.9358 -16.9356 -16.9355 -16.9350 -16.9349 -16.9335
   -16.8991 -16.8989 -16.8989 -16.8988 -16.8980 -16.8979 -16.8970 -16.8968
   -16.8967 -16.8937 -16.8936 -16.8926 -16.8925 -16.8919 -16.8918 -16.8867
   -16.8509 -16.8507 -16.8507 -16.8506 -16.8496 -16.8491 -16.8485 -16.8483
   -16.8483 -16.8482 -16.8477 -16.8475 -16.8459 -16.8454 -16.8453 -16.8409
    -8.6319  -8.6319  -8.4796  -8.4795  -8.4723  -8.4270  -8.4269  -8.4215
    -8.4214  -8.4094  -8.3466  -8.3465  -8.3029  -8.3029  -8.2935  -8.2542
    -8.2272  -8.2271  -8.1710  -8.1709  -8.1318  -8.1318  -8.0215  -8.0215
    -8.0189  -8.0187  -8.0134  -8.0133  -7.9922  -7.9794  -7.9759  -7.9569
    -7.9392  -7.9105  -7.8831  -7.8830  -7.8810  -7.8698  -7.8697  -7.8598
    -7.8597  -7.8465  -7.8464  -7.8367  -7.8367  -7.8309  -7.8308  -7.7848
    -7.7728  -7.7597  -7.7596  -7.6664  -7.6663  -7.6342  -7.5969  -7.5784
    -7.5603  -7.5602  -7.5373  -7.5372  -7.5244  -7.5243  -7.5131  -7.5130
    -7.5035  -7.4635  -7.4634  -7.4429  -7.3983  -7.3983  -7.3726  -7.3680
    -7.3680  -7.3497  -7.3497  -7.2888  -7.2887  -7.2326  -7.2325  -7.2315
    -7.2046  -7.1930  -7.1872  -7.1870  -7.1397  -7.1396  -7.1387  -7.0672
    -7.0671  -7.0594  -7.0593  -7.0220  -7.0219  -6.9925  -6.9924  -6.8933
    -5.1811  -5.1810  -5.1737  -5.1737  -5.1530  -5.1530  -5.1510  -5.1510
    -5.1508  -5.1508  -5.1180  -5.1180  -5.0985  -5.0894  -5.0894  -5.0642
    -5.0642  -5.0538  -5.0244  -4.9887  -4.9887  -4.9426  -4.9426  -4.9413
    -4.9413  -4.9411  -4.9312  -4.9311  -4.9310  -4.9310  -4.8699  -4.8699
    -4.8676  -4.7856  -4.7795  -4.7795  -4.7415  -4.7075  -4.6879  -4.6821
    -4.6774  -4.6774  -4.6499  -4.6499  -4.5882  -4.5749  -4.5736  -4.5217
    -4.5216  -4.5214  -4.5213  -4.4970  -4.4970  -4.4958  -4.4958  -4.4334
    -4.4333  -4.3952  -4.3952  -4.3895  -4.3801  -4.3801  -4.3711  -4.3711
    -4.3489  -4.3489  -4.3218  -4.3217  -4.2994  -4.1719  -4.1719  -4.1327
     4.5827   4.8189   4.8189   4.8848   4.8848   4.8960   4.9246   4.9393
     4.9679   4.9680   4.9973   5.0095   5.0500   5.0501   5.0626   5.0627
     5.0826   5.0828   5.1710   5.1711   5.1937   5.2294   5.2295   5.2903
     5.2904   5.3036   5.3037   5.3153   5.3153   5.3542   5.3687   5.3687
     5.3820   5.3821   5.3945   5.3946   5.4294   5.4379   5.4651   5.4652
     5.4704   5.4724   5.4725   5.4759   5.4760   5.4783   5.4784   5.4959
     5.5357   5.5358   5.5568   5.5568   5.6046   5.6050   5.6050   5.6285
     5.6418   5.6419   5.6513   5.6514   5.6557   5.6798   5.6817   5.6817
     5.6961   5.6962   5.7495   5.7724   5.7725   5.7745   5.8053   5.8053
     5.8198   5.8199   5.8349   5.8349   5.8396   5.8408   5.8408   5.8418
     5.8419   5.8494   5.8494   5.8584   5.8585   5.8629   5.8639   5.8740
     5.8741   5.8856   5.8857   5.8974   5.8974   5.9117   5.9208   5.9209
     5.9792   5.9856   5.9877   6.0021   6.0021   6.0195   6.0281   6.0581
     6.0581   6.0605   6.0863   6.0863   6.1054   6.1219   6.1297   6.1564
     6.1581   6.1581   6.2496   6.2497   6.2769   6.3209   6.3209   6.3444
     6.3444   6.3619   6.3619   6.3741   6.4119   6.4120   6.4522   6.4523
     6.4703   6.4704   6.5118   6.5118   6.5146   6.5146   6.5207   6.5381
     6.5456   6.5457   6.5527   6.5527   6.5714   6.5771   6.5778   6.5974
     6.5975   6.6518   6.6519   6.6644   6.6647   6.6648   6.7139   6.7219
     6.7219   6.7274   6.7275   6.7423   6.7424   6.8076   6.8147   6.8325
     6.8483   6.8483   6.8871   6.8871   6.8983   6.8983   6.9152   6.9152
     6.9648   6.9648   6.9776   6.9789   6.9952   7.0378   7.0379   7.0570
     7.0571   7.0759   7.0760   7.0864   7.0865   7.1458   7.1458   7.2281
     7.2331   7.2331   7.2334   7.2420   7.2421   7.2533   7.2534   7.2536
     7.2886   7.2887   7.2946   7.2948   7.3039   7.3178   7.3179   7.3385
     7.3386   7.3454   7.3456   7.3585   7.3881   7.4017   7.4042   7.4043
     7.4103   7.4111   7.4112   7.4276   7.4276   7.4513   7.4513   7.4535
     7.4536   7.4661   7.4661   7.4677   7.4678   7.4859   7.4881   7.4882
     7.5109   7.5109   7.5162   7.5353   7.5353   7.5598   7.5817   7.5818
     7.5850   7.5850   7.5851   7.6387   7.6429   7.6430   7.6433   7.6433
     7.6594   7.6595   7.7002   7.7002   7.7022   7.7022   7.7172   7.7479
     7.7479   7.7500   7.7716   7.7716   7.7845   7.7853   7.7854   7.7915
     7.7915   7.8295   7.8296   7.8485   7.8741   7.8792   7.8792   7.8808
     7.8873   7.8874   7.9109   7.9348   7.9394   7.9395   7.9424   7.9425
     7.9533   7.9533   7.9718   7.9718   7.9732   7.9733   7.9741   7.9742
     7.9926   7.9927   8.0453   8.0566   8.0646   8.0691   8.0852   8.0852
    12.4948  12.6576  12.6828  12.6828  12.7290  12.7317  12.7317  12.7370
    12.7794  12.7794  12.8026  12.8026  12.8135  12.8629  12.8630  12.8733
    12.8733  12.8792  12.8793  12.8844  12.8845  12.9085  12.9086  12.9100
    12.9100  12.9386  12.9518  12.9784  12.9784  13.0220  13.0233  13.0233
    13.0237  13.0237  13.0279  13.0561  13.0561  13.0643  13.0643  13.0955
    13.0955  13.1190  13.1190  13.1216  13.1661  13.1780  13.2396  13.2641
    13.2641  13.3267  13.3269  13.3337  13.3339  13.3427  13.3532  13.3533
    13.3535  13.3536  13.3617  13.3619  13.3629  13.3875  13.3876  13.3914
    13.3915  13.3993  13.4042  13.4045  13.4097  13.4131  13.4141  13.4231
    13.4232  13.4413  13.4430  13.4452  13.4455  13.4463  13.4469  13.4472
    13.4473  13.4480  13.4485  13.4489  13.4537  13.4554  13.4592  13.4613
    13.4664  13.4716  13.4720  13.4744  13.4765  13.4772  13.4774  13.4805
    13.4862  13.4919  13.4940  13.4995  13.5049  13.5067  13.5163  13.5266
    13.5275  13.5279  13.5296  13.5366  13.5422  13.5444  13.5454  13.5472
    13.5514  13.5551  13.5627  13.5676  13.5709  13.5742  13.5784  13.5836

 ------ SPIN DOWN ----------


          k = 0.0000 0.0000 0.0000 ( 97410 PWs)   bands (ev):

   -38.5951 -38.5949 -38.5949 -38.5948 -38.5947 -38.5947 -38.5947 -38.5946
   -38.5946 -38.5946 -38.5946 -38.5946 -38.5945 -38.5945 -38.5945 -38.5945
   -35.1733 -35.1732 -35.1731 -35.1730 -35.1715 -35.1714 -35.1713 -35.1713
   -35.1712 -35.1712 -35.1711 -35.1711 -35.1695 -35.1694 -35.1693 -35.1692
   -34.9567 -34.9560 -34.9559 -34.9556 -34.9548 -34.9547 -34.9546 -34.9546
   -34.9545 -34.9544 -34.9543 -34.9542 -34.9534 -34.9529 -34.9528 -34.9526
   -34.9417 -34.9415 -34.9413 -34.9412 -34.9412 -34.9411 -34.9410 -34.9410
   -34.9410 -34.9409 -34.9409 -34.9408 -34.9407 -34.9406 -34.9406 -34.9405
   -33.8104 -33.8104 -33.8104 -33.8102 -33.8101 -33.8101 -33.8100 -33.8098
   -21.5902 -21.5864 -21.5805 -21.5804 -21.5802 -21.5802 -21.5764 -21.5743
   -21.5071 -21.5071 -21.4952 -21.4921 -21.4752 -21.4752 -21.4724 -21.4724
   -21.4687 -21.4687 -21.4684 -21.4684 -21.4408 -21.4401 -21.4401 -21.4395
   -16.9379 -16.9377 -16.9377 -16.9375 -16.9369 -16.9368 -16.9364 -16.9363
   -16.9362 -16.9359 -16.9359 -16.9358 -16.9356 -16.9351 -16.9350 -16.9336
   -16.8992 -16.8991 -16.8990 -16.8989 -16.8981 -16.8980 -16.8971 -16.8969
   -16.8968 -16.8939 -16.8937 -16.8927 -16.8926 -16.8921 -16.8919 -16.8868
   -16.8510 -16.8508 -16.8508 -16.8507 -16.8497 -16.8493 -16.8487 -16.8484
   -16.8484 -16.8483 -16.8478 -16.8476 -16.8460 -16.8456 -16.8454 -16.8410
    -8.6317  -8.6317  -8.4794  -8.4793  -8.4721  -8.4268  -8.4267  -8.4213
    -8.4212  -8.4091  -8.3463  -8.3463  -8.3027  -8.3027  -8.2933  -8.2540
    -8.2270  -8.2269  -8.1708  -8.1707  -8.1316  -8.1316  -8.0213  -8.0212
    -8.0186  -8.0185  -8.0132  -8.0130  -7.9920  -7.9791  -7.9757  -7.9566
    -7.9390  -7.9103  -7.8828  -7.8827  -7.8808  -7.8695  -7.8695  -7.8595
    -7.8594  -7.8462  -7.8462  -7.8365  -7.8365  -7.8307  -7.8306  -7.7845
    -7.7725  -7.7594  -7.7594  -7.6662  -7.6661  -7.6339  -7.5966  -7.5781
    -7.5600  -7.5600  -7.5370  -7.5369  -7.5241  -7.5241  -7.5128  -7.5127
    -7.5032  -7.4631  -7.4631  -7.4426  -7.3981  -7.3980  -7.3723  -7.3677
    -7.3677  -7.3495  -7.3494  -7.2885  -7.2884  -7.2323  -7.2322  -7.2312
    -7.2043  -7.1927  -7.1868  -7.1867  -7.1394  -7.1393  -7.1384  -7.0669
    -7.0667  -7.0591  -7.0590  -7.0217  -7.0216  -6.9921  -6.9921  -6.8929
    -5.1811  -5.1810  -5.1737  -5.1737  -5.1530  -5.1530  -5.1511  -5.1510
    -5.1509  -5.1509  -5.1181  -5.1180  -5.0985  -5.0894  -5.0894  -5.0642
    -5.0642  -5.0539  -5.0244  -4.9887  -4.9887  -4.9426  -4.9426  -4.9413
    -4.9413  -4.9411  -4.9311  -4.9311  -4.9310  -4.9310  -4.8699  -4.8698
    -4.8676  -4.7856  -4.7795  -4.7795  -4.7415  -4.7075  -4.6879  -4.6821
    -4.6774  -4.6774  -4.6499  -4.6498  -4.5882  -4.5748  -4.5736  -4.5216
    -4.5216  -4.5214  -4.5213  -4.4970  -4.4969  -4.4958  -4.4957  -4.4333
    -4.4332  -4.3952  -4.3951  -4.3895  -4.3801  -4.3800  -4.3711  -4.3711
    -4.3489  -4.3489  -4.3217  -4.3217  -4.2993  -4.1718  -4.1718  -4.1326
     4.5827   4.8190   4.8190   4.8849   4.8849   4.8961   4.9247   4.9394
     4.9680   4.9681   4.9974   5.0096   5.0501   5.0502   5.0627   5.0628
     5.0828   5.0829   5.1711   5.1712   5.1938   5.2295   5.2296   5.2904
     5.2905   5.3037   5.3038   5.3154   5.3155   5.3543   5.3688   5.3688
     5.3821   5.3822   5.3947   5.3948   5.4295   5.4380   5.4653   5.4654
     5.4705   5.4726   5.4726   5.4761   5.4762   5.4785   5.4786   5.4960
     5.5359   5.5359   5.5569   5.5570   5.6047   5.6051   5.6051   5.6287
     5.6420   5.6420   5.6514   5.6516   5.6559   5.6800   5.6818   5.6819
     5.6963   5.6963   5.7496   5.7726   5.7727   5.7746   5.8055   5.8055
     5.8200   5.8200   5.8350   5.8351   5.8398   5.8409   5.8409   5.8420
     5.8420   5.8495   5.8495   5.8586   5.8586   5.8630   5.8640   5.8741
     5.8743   5.8858   5.8858   5.8975   5.8976   5.9119   5.9209   5.9210
     5.9794   5.9857   5.9879   6.0023   6.0023   6.0197   6.0283   6.0583
     6.0583   6.0607   6.0864   6.0864   6.1056   6.1221   6.1299   6.1566
     6.1583   6.1583   6.2498   6.2499   6.2771   6.3210   6.3211   6.3446
     6.3446   6.3621   6.3621   6.3743   6.4121   6.4121   6.4525   6.4525
     6.4705   6.4706   6.5120   6.5121   6.5148   6.5148   6.5209   6.5383
     6.5459   6.5459   6.5529   6.5529   6.5716   6.5774   6.5780   6.5976
     6.5977   6.6520   6.6521   6.6647   6.6650   6.6650   6.7141   6.7221
     6.7222   6.7276   6.7277   6.7426   6.7426   6.8079   6.8150   6.8328
     6.8485   6.8486   6.8873   6.8873   6.8985   6.8986   6.9155   6.9155
     6.9650   6.9650   6.9779   6.9791   6.9954   7.0381   7.0382   7.0573
     7.0573   7.0762   7.0763   7.0867   7.0868   7.1460   7.1461   7.2284
     7.2333   7.2334   7.2337   7.2423   7.2424   7.2536   7.2537   7.2538
     7.2889   7.2889   7.2949   7.2950   7.3042   7.3181   7.3182   7.3388
     7.3389   7.3457   7.3458   7.3588   7.3883   7.4020   7.4045   7.4045
     7.4106   7.4114   7.4114   7.4278   7.4279   7.4516   7.4516   7.4538
     7.4538   7.4664   7.4664   7.4680   7.4680   7.4861   7.4884   7.4885
     7.5111   7.5112   7.5165   7.5356   7.5356   7.5601   7.5820   7.5820
     7.5853   7.5853   7.5853   7.6391   7.6432   7.6432   7.6436   7.6436
     7.6597   7.6598   7.7005   7.7005   7.7025   7.7025   7.7175   7.7481
     7.7482   7.7503   7.7719   7.7719   7.7848   7.7856   7.7857   7.7918
     7.7919   7.8298   7.8299   7.8488   7.8744   7.8795   7.8795   7.8811
     7.8877   7.8877   7.9112   7.9351   7.9397   7.9398   7.9427   7.9428
     7.9536   7.9536   7.9721   7.9721   7.9735   7.9736   7.9744   7.9745
     7.9929   7.9930   8.0456   8.0569   8.0650   8.0694   8.0855   8.0855
    12.4947  12.6575  12.6827  12.6827  12.7289  12.7316  12.7316  12.7370
    12.7793  12.7793  12.8025  12.8025  12.8134  12.8628  12.8628  12.8732
    12.8732  12.8791  12.8791  12.8843  12.8843  12.9084  12.9085  12.9099
    12.9099  12.9385  12.9517  12.9782  12.9783  13.0219  13.0232  13.0232
    13.0236  13.0236  13.0278  13.0559  13.0560  13.0642  13.0642  13.0954
    13.0954  13.1189  13.1189  13.1215  13.1660  13.1778  13.2395  13.2640
    13.2640  13.3265  13.3267  13.3335  13.3335  13.3423  13.3531  13.3532
    13.3532  13.3533  13.3615  13.3616  13.3630  13.3874  13.3875  13.3912
    13.3914  13.3992  13.4040  13.4041  13.4094  13.4127  13.4129  13.4230
    13.4230  13.4358  13.4415  13.4438  13.4454  13.4462  13.4467  13.4473
    13.4475  13.4476  13.4478  13.4481  13.4484  13.4548  13.4554  13.4592
    13.4592  13.4699  13.4709  13.4736  13.4746  13.4763  13.4767  13.4779
    13.4846  13.4851  13.4933  13.4938  13.5050  13.5052  13.5068  13.5136
    13.5147  13.5255  13.5269  13.5301  13.5349  13.5352  13.5358  13.5451
    13.5454  13.5513  13.5555  13.5572  13.5627  13.5690  13.5715  13.5744

     the Fermi energy is    10.3979 ev

!    total energy              =   -7311.17903685 Ry
     estimated scf accuracy    <       0.00000021 Ry
     smearing contrib. (-TS)   =       0.00000000 Ry
     internal energy E=F+TS    =   -7311.17903685 Ry

     The total energy is F=E-TS. E is the sum of the following terms:
     one-electron contribution =   -1518.04937688 Ry
     hartree contribution      =    1393.61929901 Ry
     xc contribution           =   -1727.89862407 Ry
     ewald contribution        =   -5458.85033492 Ry

     total magnetization       =     0.00 Bohr mag/cell
     absolute magnetization    =     0.01 Bohr mag/cell

     convergence has been achieved in  13 iterations

     Forces acting on atoms (cartesian axes, Ry/au):

     atom    1 type  3   force =    -0.00000129   -0.00000803   -0.00001191
     atom    2 type  3   force =     0.00000063   -0.00000822    0.00001997
     atom    3 type  3   force =     0.00000008   -0.00000867   -0.00001702
     atom    4 type  3   force =     0.00000166   -0.00000841    0.00001256
     atom    5 type  3   force =     0.00000129    0.00000803    0.00001191
     atom    6 type  3   force =    -0.00000063    0.00000822   -0.00001997
     atom    7 type  3   force =    -0.00000008    0.00000867    0.00001702
     atom    8 type  3   force =    -0.00000166    0.00000841   -0.00001256
     atom    9 type  3   force =     0.00000813    0.00878665   -0.00000259
     atom   10 type  3   force =    -0.00000886    0.00879028   -0.00000219
     atom   11 type  3   force =     0.00881363    0.00000397   -0.00001198
     atom   12 type  3   force =    -0.00881363   -0.00000397    0.00001198
     atom   13 type  3   force =    -0.00000813   -0.00878665    0.00000259
     atom   14 type  3   force =     0.00000886   -0.00879028    0.00000219
     atom   15 type  3   force =     0.00000866   -0.00880300   -0.00000275
     atom   16 type  3   force =    -0.00000898   -0.00880160   -0.00000420
     atom   17 type  3   force =     0.00881221    0.00000363    0.00001174
     atom   18 type  3   force =    -0.00881221   -0.00000363   -0.00001174
     atom   19 type  3   force =    -0.00000866    0.00880300    0.00000275
     atom   20 type  3   force =     0.00000898    0.00880160    0.00000420
     atom   21 type  3   force =     0.00879468   -0.00000564    0.00001139
     atom   22 type  3   force =    -0.00879468    0.00000564   -0.00001139
     atom   23 type  3   force =     0.00879553   -0.00000570   -0.00001225
     atom   24 type  3   force =    -0.00879553    0.00000570    0.00001225
     atom   25 type  4   force =     0.00000269   -0.00001840   -0.00001915
     atom   26 type  4   force =    -0.00002310   -0.00001503    0.00001892
     atom   27 type  4   force =     0.00000000    0.00000000    0.00000000
     atom   28 type  4   force =     0.00000000    0.00000000    0.00000000
     atom   29 type  4   force =    -0.00000269    0.00001840    0.00001915
     atom   30 type  4   force =     0.00002310    0.00001503   -0.00001892
     atom   31 type  4   force =     0.00002374   -0.00001279    0.00002328
     atom   32 type  4   force =    -0.00000680   -0.00000656   -0.00001438
     atom   33 type  4   force =     0.00000000    0.00000000    0.00000000
     atom   34 type  4   force =     0.00000000    0.00000000    0.00000000
     atom   35 type  4   force =    -0.00002374    0.00001279   -0.00002328
     atom   36 type  4   force =     0.00000680    0.00000656    0.00001438
     atom   37 type  4   force =     0.00000000    0.00000000    0.00000000
     atom   38 type  4   force =     0.00000000    0.00000000    0.00000000
     atom   39 type  4   force =     0.00000000    0.00000000    0.00000000
     atom   40 type  4   force =     0.00000000    0.00000000    0.00000000
     atom   41 type  1   force =    -0.00000004   -0.00000160    0.00000024
     atom   42 type  1   force =     0.00000016   -0.00000151   -0.00000226
     atom   43 type  1   force =    -0.00000003   -0.00000159    0.00000013
     atom   44 type  1   force =     0.00000010   -0.00000172    0.00000265
     atom   45 type  1   force =     0.00000004    0.00000160   -0.00000024
     atom   46 type  1   force =    -0.00000016    0.00000151    0.00000226
     atom   47 type  1   force =     0.00000003    0.00000159   -0.00000013
     atom   48 type  1   force =    -0.00000010    0.00000172   -0.00000265
     atom   49 type  1   force =     0.00298598    0.00296562   -0.00000068
     atom   50 type  1   force =    -0.00298544    0.00296482    0.00000363
     atom   51 type  1   force =     0.00298914    0.00296442   -0.00000234
     atom   52 type  1   force =    -0.00298941    0.00296461    0.00000162
     atom   53 type  1   force =    -0.00298598   -0.00296562    0.00000068
     atom   54 type  1   force =     0.00298544   -0.00296482   -0.00000363
     atom   55 type  1   force =    -0.00298914   -0.00296442    0.00000234
     atom   56 type  1   force =     0.00298941   -0.00296461   -0.00000162
     atom   57 type  1   force =     0.00298551   -0.00296648    0.00000407
     atom   58 type  1   force =    -0.00298644   -0.00296738   -0.00000069
     atom   59 type  1   force =     0.00298982   -0.00296603    0.00000123
     atom   60 type  1   force =    -0.00298913   -0.00296603   -0.00000287
     atom   61 type  1   force =    -0.00298551    0.00296648   -0.00000407
     atom   62 type  1   force =     0.00298644    0.00296738    0.00000069
     atom   63 type  1   force =    -0.00298982    0.00296603   -0.00000123
     atom   64 type  1   force =     0.00298913    0.00296603    0.00000287
     atom   65 type  1   force =     0.00030542    0.00244253   -0.00254288
     atom   66 type  1   force =    -0.00030638    0.00244114   -0.00254227
     atom   67 type  1   force =     0.00250860    0.00029779   -0.00254126
     atom   68 type  1   force =    -0.00250726    0.00029966   -0.00254636
     atom   69 type  1   force =    -0.00030542   -0.00244253    0.00254288
     atom   70 type  1   force =     0.00030638   -0.00244114    0.00254227
     atom   71 type  1   force =    -0.00250860   -0.00029779    0.00254126
     atom   72 type  1   force =     0.00250726   -0.00029966    0.00254636
     atom   73 type  1   force =     0.00030592   -0.00244446   -0.00254233
     atom   74 type  1   force =    -0.00030545   -0.00244524   -0.00254277
     atom   75 type  1   force =     0.00250759   -0.00030214   -0.00254711
     atom   76 type  1   force =    -0.00250875   -0.00029997   -0.00254190
     atom   77 type  1   force =    -0.00030592    0.00244446    0.00254233
     atom   78 type  1   force =     0.00030545    0.00244524    0.00254277
     atom   79 type  1   force =    -0.00250759    0.00030214    0.00254711
     atom   80 type  1   force =     0.00250875    0.00029997    0.00254190
     atom   81 type  1   force =     0.00030254    0.00244480   -0.00254142
     atom   82 type  1   force =    -0.00030181    0.00244558   -0.00254299
     atom   83 type  1   force =     0.00250574    0.00030248   -0.00254654
     atom   84 type  1   force =    -0.00250688    0.00030010   -0.00254208
     atom   85 type  1   force =    -0.00030254   -0.00244480    0.00254142
     atom   86 type  1   force =     0.00030181   -0.00244558    0.00254299
     atom   87 type  1   force =    -0.00250574   -0.00030248    0.00254654
     atom   88 type  1   force =     0.00250688   -0.00030010    0.00254208
     atom   89 type  1   force =     0.00030198   -0.00244239   -0.00254280
     atom   90 type  1   force =    -0.00030297   -0.00244158   -0.00254154
     atom   91 type  1   force =     0.00250679   -0.00029782   -0.00254168
     atom   92 type  1   force =    -0.00250578   -0.00030030   -0.00254611
     atom   93 type  1   force =    -0.00030198    0.00244239    0.00254280
     atom   94 type  1   force =     0.00030297    0.00244158    0.00254154
     atom   95 type  1   force =    -0.00250679    0.00029782    0.00254168
     atom   96 type  1   force =     0.00250578    0.00030030    0.00254611
     atom   97 type  2   force =    -0.00052233   -0.00580039   -0.01591510
     atom   98 type  2   force =     0.00052556   -0.00580039   -0.01591405
     atom   99 type  2   force =    -0.00573680   -0.00064739   -0.01590674
     atom  100 type  2   force =     0.00573455   -0.00064806   -0.01591047
     atom  101 type  2   force =     0.00052233    0.00580039    0.01591510
     atom  102 type  2   force =    -0.00052556    0.00580039    0.01591405
     atom  103 type  2   force =     0.00573680    0.00064739    0.01590674
     atom  104 type  2   force =    -0.00573455    0.00064806    0.01591047
     atom  105 type  2   force =    -0.00052677    0.00580323   -0.01591222
     atom  106 type  2   force =     0.00052244    0.00580218   -0.01591223
     atom  107 type  2   force =    -0.00573485    0.00064940   -0.01590941
     atom  108 type  2   force =     0.00573556    0.00064868   -0.01590534
     atom  109 type  2   force =     0.00052677   -0.00580323    0.01591222
     atom  110 type  2   force =    -0.00052244   -0.00580218    0.01591223
     atom  111 type  2   force =     0.00573485   -0.00064940    0.01590941
     atom  112 type  2   force =    -0.00573556   -0.00064868    0.01590534
     atom  113 type  2   force =    -0.00052317   -0.00580373   -0.01591544
     atom  114 type  2   force =     0.00052194   -0.00580249   -0.01591341
     atom  115 type  2   force =    -0.00573367   -0.00064734   -0.01590796
     atom  116 type  2   force =     0.00573457   -0.00064929   -0.01590726
     atom  117 type  2   force =     0.00052317    0.00580373    0.01591544
     atom  118 type  2   force =    -0.00052194    0.00580249    0.01591341
     atom  119 type  2   force =     0.00573367    0.00064734    0.01590796
     atom  120 type  2   force =    -0.00573457    0.00064929    0.01590726
     atom  121 type  2   force =    -0.00052246    0.00580008   -0.01591449
     atom  122 type  2   force =     0.00052319    0.00580227   -0.01591468
     atom  123 type  2   force =    -0.00573571    0.00064822   -0.01590592
     atom  124 type  2   force =     0.00573406    0.00064529   -0.01591073
     atom  125 type  2   force =     0.00052246   -0.00580008    0.01591449
     atom  126 type  2   force =    -0.00052319   -0.00580227    0.01591468
     atom  127 type  2   force =     0.00573571   -0.00064822    0.01590592
     atom  128 type  2   force =    -0.00573406   -0.00064529    0.01591073
     atom  129 type  2   force =     0.00025811    0.00318488   -0.00388688
     atom  130 type  2   force =    -0.00025453    0.00318768   -0.00388199
     atom  131 type  2   force =     0.00308805    0.00038030   -0.00388333
     atom  132 type  2   force =    -0.00308701    0.00037919   -0.00388533
     atom  133 type  2   force =    -0.00025811   -0.00318488    0.00388688
     atom  134 type  2   force =     0.00025453   -0.00318768    0.00388199
     atom  135 type  2   force =    -0.00308805   -0.00038030    0.00388333
     atom  136 type  2   force =     0.00308701   -0.00037919    0.00388533
     atom  137 type  2   force =     0.00025301   -0.00318513   -0.00388278
     atom  138 type  2   force =    -0.00025739   -0.00318249   -0.00388533
     atom  139 type  2   force =     0.00308548   -0.00038104   -0.00388441
     atom  140 type  2   force =    -0.00308835   -0.00038228   -0.00388234
     atom  141 type  2   force =    -0.00025301    0.00318513    0.00388278
     atom  142 type  2   force =     0.00025739    0.00318249    0.00388533
     atom  143 type  2   force =    -0.00308548    0.00038104    0.00388441
     atom  144 type  2   force =     0.00308835    0.00038228    0.00388234
     atom  145 type  2   force =     0.00025368    0.00318571   -0.00388227
     atom  146 type  2   force =    -0.00025645    0.00318340   -0.00388485
     atom  147 type  2   force =     0.00308696    0.00038210   -0.00388627
     atom  148 type  2   force =    -0.00308869    0.00038297   -0.00388180
     atom  149 type  2   force =    -0.00025368   -0.00318571    0.00388227
     atom  150 type  2   force =     0.00025645   -0.00318340    0.00388485
     atom  151 type  2   force =    -0.00308696   -0.00038210    0.00388627
     atom  152 type  2   force =     0.00308869   -0.00038297    0.00388180
     atom  153 type  2   force =     0.00025621   -0.00318518   -0.00388690
     atom  154 type  2   force =    -0.00025495   -0.00318730   -0.00388292
     atom  155 type  2   force =     0.00308665   -0.00038192   -0.00388296
     atom  156 type  2   force =    -0.00308663   -0.00038222   -0.00388373
     atom  157 type  2   force =    -0.00025621    0.00318518    0.00388690
     atom  158 type  2   force =     0.00025495    0.00318730    0.00388292
     atom  159 type  2   force =    -0.00308665    0.00038192    0.00388296
     atom  160 type  2   force =     0.00308663    0.00038222    0.00388373
     atom  161 type  2   force =     0.00125555    0.00996814    0.00062758
     atom  162 type  2   force =    -0.00125788    0.00996543    0.00062894
     atom  163 type  2   force =     0.00987119    0.00116613    0.00062658
     atom  164 type  2   force =    -0.00987223    0.00116854    0.00062685
     atom  165 type  2   force =    -0.00125555   -0.00996814   -0.00062758
     atom  166 type  2   force =     0.00125788   -0.00996543   -0.00062894
     atom  167 type  2   force =    -0.00987119   -0.00116613   -0.00062658
     atom  168 type  2   force =     0.00987223   -0.00116854   -0.00062685
     atom  169 type  2   force =     0.00125937   -0.00996569    0.00062827
     atom  170 type  2   force =    -0.00125676   -0.00996611    0.00062846
     atom  171 type  2   force =     0.00987017   -0.00116845    0.00062502
     atom  172 type  2   force =    -0.00987102   -0.00116624    0.00062705
     atom  173 type  2   force =    -0.00125937    0.00996569   -0.00062827
     atom  174 type  2   force =     0.00125676    0.00996611   -0.00062846
     atom  175 type  2   force =    -0.00987017    0.00116845   -0.00062502
     atom  176 type  2   force =     0.00987102    0.00116624   -0.00062705
     atom  177 type  2   force =     0.00126059    0.00996561    0.00062786
     atom  178 type  2   force =    -0.00125778    0.00996482    0.00062635
     atom  179 type  2   force =     0.00987344    0.00116838    0.00062664
     atom  180 type  2   force =    -0.00987353    0.00116660    0.00062749
     atom  181 type  2   force =    -0.00126059   -0.00996561   -0.00062786
     atom  182 type  2   force =     0.00125778   -0.00996482   -0.00062635
     atom  183 type  2   force =    -0.00987344   -0.00116838   -0.00062664
     atom  184 type  2   force =     0.00987353   -0.00116660   -0.00062749
     atom  185 type  2   force =     0.00125748   -0.00996528    0.00062643
     atom  186 type  2   force =    -0.00126102   -0.00996388    0.00062703
     atom  187 type  2   force =     0.00987221   -0.00116527    0.00062799
     atom  188 type  2   force =    -0.00987409   -0.00116884    0.00062454
     atom  189 type  2   force =    -0.00125748    0.00996528   -0.00062643
     atom  190 type  2   force =     0.00126102    0.00996388   -0.00062703
     atom  191 type  2   force =    -0.00987221    0.00116527   -0.00062799
     atom  192 type  2   force =     0.00987409    0.00116884   -0.00062454

     Total force =     0.122941     Total SCF correction =     0.001136


     Computing stress (Cartesian axis) and pressure

          total   stress  (Ry/bohr**3)                   (kbar)     P=       15.22
   0.00010718   0.00000000   0.00000000           15.77        0.00        0.00
   0.00000000   0.00010717  -0.00000000            0.00       15.77       -0.00
   0.00000000  -0.00000000   0.00009607            0.00       -0.00       14.13


     Writing output data file /home/kartickr/QuantumEspresso_runs/CPU/LLZO/temp/LLZO.save/

     init_run     :     22.43s CPU     22.74s WALL (       1 calls)
     electrons    :   1461.15s CPU   1470.95s WALL (       1 calls)
     forces       :     18.10s CPU     18.26s WALL (       1 calls)
     stress       :    627.02s CPU    629.06s WALL (       1 calls)

     Called by init_run:
     wfcinit      :     18.18s CPU     18.43s WALL (       1 calls)
     potinit      :      1.49s CPU      1.53s WALL (       1 calls)
     hinit0       :      2.53s CPU      2.54s WALL (       1 calls)

     Called by electrons:
     c_bands      :   1397.29s CPU   1406.37s WALL (      13 calls)
     sum_band     :     57.04s CPU     57.37s WALL (      13 calls)
     v_of_rho     :      5.50s CPU      5.56s WALL (      14 calls)
     mix_rho      :      1.21s CPU      1.24s WALL (      13 calls)

     Called by c_bands:
     init_us_2    :      3.61s CPU      3.68s WALL (      58 calls)
     regterg      :   1378.50s CPU   1387.45s WALL (      42 calls)

     Called by *egterg:
     rdiaghg      :     91.52s CPU     94.08s WALL (     597 calls)
     h_psi        :    638.01s CPU    640.98s WALL (     599 calls)
     g_psi        :      1.21s CPU      1.22s WALL (     555 calls)

     Called by h_psi:
     h_psi:calbec :    239.32s CPU    239.82s WALL (     599 calls)
     vloc_psi     :    344.96s CPU    347.13s WALL (     599 calls)
     add_vuspsi   :     51.43s CPU     51.72s WALL (     599 calls)

     General routines
     calbec       :    489.13s CPU    490.04s WALL (     609 calls)
     fft          :      4.28s CPU      4.31s WALL (     239 calls)
     ffts         :      0.26s CPU      0.26s WALL (      26 calls)
     fftw         :    373.41s CPU    375.60s WALL (   97998 calls)

     Parallel routines
     fft_scatt_xy :     17.37s CPU     17.40s WALL (   98263 calls)
     fft_scatt_yz :    312.76s CPU    314.39s WALL (   98263 calls)

     PWSCF        :  35m30.66s CPU  35m56.13s WALL


   This run was terminated on:  12:50:20   8Sep2021            

=------------------------------------------------------------------------------=
   JOB DONE.
=------------------------------------------------------------------------------=
