
     Program PWSCF v.6.7MaX starts on  8Sep2021 at 12:15: 8 

     This program is part of the open-source Quantum ESPRESSO suite
     for quantum simulation of materials; please cite
         "P. Giannozzi et al., J. Phys.:Condens. Matter 21 395502 (2009);
         "P. Giannozzi et al., J. Phys.:Condens. Matter 29 465901 (2017);
          URL http://www.quantum-espresso.org", 
     in publications or presentations arising from this work. More details at
     http://www.quantum-espresso.org/quote

     Parallel version (MPI & OpenMP), running on      48 processor cores
     Number of MPI processes:                48
     Threads/MPI process:                     1

     MPI processes distributed on     1 nodes
     R & G space division:  proc/nbgrp/npool/nimage =      48
     Reading input from LLZO_ecut200_magn.scf.in

     Current dimensions of program PWSCF are:
     Max number of different atomic species (ntypx) = 10
     Max number of k-points (npk) =  40000
     Max angular momentum in pseudopotentials (lmaxx) =  3
     Message from routine read_pp_mesh:
     mesh size missing, using the one in header
     Message from routine read_pp_mesh:
     mesh size missing, using the one in header
     Message from routine read_pp_mesh:
     mesh size missing, using the one in header
     Message from routine read_pp_mesh:
     mesh size missing, using the one in header

     gamma-point specific algorithms are used

     Subspace diagonalization in iterative solution of the eigenvalue problem:
     one sub-group per band group will be used
     scalapack distributed-memory algorithm (size of sub-group:  6*  6 procs)

     Found symmetry operation: I + (  0.5000  0.5000  0.5000)
     This is a supercell, fractional translations are disabled
     Message from routine setup:
     using ibrav=0 with symmetry is DISCOURAGED, use correct ibrav instead

     Parallelization info
     --------------------
     sticks:   dense  smooth     PW     G-vecs:    dense   smooth      PW
     Min         814     814    202               117142   117142   14638
     Max         817     817    204               117156   117156   14652
     Sum       39109   39109   9769              5623043  5623043  702955



     bravais-lattice index     =            0
     lattice parameter (alat)  =      24.7911  a.u.
     unit-cell volume          =   14715.3804 (a.u.)^3
     number of atoms/cell      =          192
     number of atomic types    =            4
     number of electrons       =      1200.00
     number of Kohn-Sham states=          720
     kinetic-energy cutoff     =     200.0000  Ry
     charge density cutoff     =     800.0000  Ry
     scf convergence threshold =      1.0E-06
     mixing beta               =       0.7000
     number of iterations used =            8  plain     mixing
     Exchange-correlation= PBE
                           (   1   4   3   4   0   0   0)

     celldm(1)=  24.791128  celldm(2)=   0.000000  celldm(3)=   0.000000
     celldm(4)=   0.000000  celldm(5)=   0.000000  celldm(6)=   0.000000

     crystal axes: (cart. coord. in units of alat)
               a(1) = (   1.000000   0.000000   0.000000 )  
               a(2) = (   0.000000   1.000000   0.000000 )  
               a(3) = (   0.000000   0.000000   0.965790 )  

     reciprocal axes: (cart. coord. in units 2 pi/alat)
               b(1) = (  1.000000  0.000000  0.000000 )  
               b(2) = (  0.000000  1.000000  0.000000 )  
               b(3) = (  0.000000  0.000000  1.035422 )  


     PseudoPot. # 1 for Li read from file:
     /home/kartickr/QuantumEspresso_runs/pseudo/Li.upf
     MD5 check sum: dbcf0ea72988e720c8c712b432d51b0d
     Pseudo is Norm-conserving, Zval =  3.0
     Generated using ONCVPSP code by D. R. Hamann
     Using radial grid of 1944 points,  4 beta functions with: 
                l(1) =   0
                l(2) =   0
                l(3) =   1
                l(4) =   1

     PseudoPot. # 2 for O  read from file:
     /home/kartickr/QuantumEspresso_runs/pseudo/O.upf
     MD5 check sum: 3e3f909f7470e8921608ab6b1f57bbae
     Pseudo is Norm-conserving + core correction, Zval =  6.0
     Generated using ONCVPSP code by D. R. Hamann
     Using radial grid of  936 points,  5 beta functions with: 
                l(1) =   0
                l(2) =   0
                l(3) =   1
                l(4) =   1
                l(5) =   2

     PseudoPot. # 3 for La read from file:
     /home/kartickr/QuantumEspresso_runs/pseudo/La.upf
     MD5 check sum: cd9f961d044315b77468ddb00b57bfe4
     Pseudo is Norm-conserving + core correction, Zval = 11.0
     Generated using ONCVPSP code by D. R. Hamann
     Using radial grid of 1812 points,  8 beta functions with: 
                l(1) =   0
                l(2) =   0
                l(3) =   1
                l(4) =   1
                l(5) =   2
                l(6) =   2
                l(7) =   3
                l(8) =   3

     PseudoPot. # 4 for Zr read from file:
     /home/kartickr/QuantumEspresso_runs/pseudo/Zr.upf
     MD5 check sum: 8ea2969ae37cb4187a0232e4a563b421
     Pseudo is Norm-conserving + core correction, Zval = 12.0
     Generated using ONCVPSP code by D. R. Hamann
     Using radial grid of 1622 points,  6 beta functions with: 
                l(1) =   0
                l(2) =   0
                l(3) =   1
                l(4) =   1
                l(5) =   2
                l(6) =   2

     atomic species   valence    mass     pseudopotential
        Li             3.00     9.00000     Li( 1.00)
        O              6.00    16.00000     O ( 1.00)
        La            11.00   138.00000     La( 1.00)
        Zr            12.00    91.24000     Zr( 1.00)

     Starting magnetic structure 
     atomic species   magnetization
        Li           0.330
        O            0.167
        La           0.090
        Zr           0.167

      2 Sym. Ops., with inversion, found



   Cartesian axes

     site n.     atom                  positions (alat units)
         1           La  tau(   1) = (   0.5000000   0.7500000   0.6036186  )
         2           La  tau(   2) = (   0.5000000   0.7500000   0.1207237  )
         3           La  tau(   3) = (   0.0000000   0.7500000   0.8450661  )
         4           La  tau(   4) = (   0.0000000   0.7500000   0.3621712  )
         5           La  tau(   5) = (   0.5000000   0.2500000   0.3621712  )
         6           La  tau(   6) = (   0.5000000   0.2500000   0.8450661  )
         7           La  tau(   7) = (   0.0000000   0.2500000   0.1207237  )
         8           La  tau(   8) = (   0.0000000   0.2500000   0.6036186  )
         9           La  tau(   9) = (   0.2500000   0.8773000   0.4828949  )
        10           La  tau(  10) = (   0.7500000   0.8773000   0.0000000  )
        11           La  tau(  11) = (   0.1273000   0.5000000   0.7243424  )
        12           La  tau(  12) = (   0.8727000   0.5000000   0.2414475  )
        13           La  tau(  13) = (   0.7500000   0.1227000   0.4828949  )
        14           La  tau(  14) = (   0.2500000   0.1227000   0.0000000  )
        15           La  tau(  15) = (   0.2500000   0.6227000   0.0000000  )
        16           La  tau(  16) = (   0.7500000   0.6227000   0.4828949  )
        17           La  tau(  17) = (   0.1273000   0.0000000   0.2414475  )
        18           La  tau(  18) = (   0.8727000   0.0000000   0.7243424  )
        19           La  tau(  19) = (   0.7500000   0.3773000   0.0000000  )
        20           La  tau(  20) = (   0.2500000   0.3773000   0.4828949  )
        21           La  tau(  21) = (   0.6273000   0.0000000   0.2414475  )
        22           La  tau(  22) = (   0.3727000   0.0000000   0.7243424  )
        23           La  tau(  23) = (   0.6273000   0.5000000   0.7243424  )
        24           La  tau(  24) = (   0.3727000   0.5000000   0.2414475  )
        25           Zr  tau(  25) = (   0.2500000   0.7500000   0.7243424  )
        26           Zr  tau(  26) = (   0.7500000   0.7500000   0.2414475  )
        27           Zr  tau(  27) = (   0.0000000   0.5000000   0.0000000  )
        28           Zr  tau(  28) = (   0.0000000   0.5000000   0.4828949  )
        29           Zr  tau(  29) = (   0.7500000   0.2500000   0.2414475  )
        30           Zr  tau(  30) = (   0.2500000   0.2500000   0.7243424  )
        31           Zr  tau(  31) = (   0.2500000   0.7500000   0.2414475  )
        32           Zr  tau(  32) = (   0.7500000   0.7500000   0.7243424  )
        33           Zr  tau(  33) = (   0.0000000   0.0000000   0.4828949  )
        34           Zr  tau(  34) = (   0.0000000   0.0000000   0.0000000  )
        35           Zr  tau(  35) = (   0.7500000   0.2500000   0.7243424  )
        36           Zr  tau(  36) = (   0.2500000   0.2500000   0.2414475  )
        37           Zr  tau(  37) = (   0.5000000   0.0000000   0.4828949  )
        38           Zr  tau(  38) = (   0.5000000   0.0000000   0.0000000  )
        39           Zr  tau(  39) = (   0.5000000   0.5000000   0.0000000  )
        40           Zr  tau(  40) = (   0.5000000   0.5000000   0.4828949  )
        41           Li  tau(  41) = (   0.5000000   0.7500000   0.3621712  )
        42           Li  tau(  42) = (   0.5000000   0.7500000   0.8450661  )
        43           Li  tau(  43) = (   0.0000000   0.7500000   0.6036186  )
        44           Li  tau(  44) = (   0.0000000   0.7500000   0.1207237  )
        45           Li  tau(  45) = (   0.5000000   0.2500000   0.6036186  )
        46           Li  tau(  46) = (   0.5000000   0.2500000   0.1207237  )
        47           Li  tau(  47) = (   0.0000000   0.2500000   0.3621712  )
        48           Li  tau(  48) = (   0.0000000   0.2500000   0.8450661  )
        49           Li  tau(  49) = (   0.6774000   0.9274000   0.6036186  )
        50           Li  tau(  50) = (   0.3226000   0.9274000   0.1207237  )
        51           Li  tau(  51) = (   0.1774000   0.9274000   0.8450661  )
        52           Li  tau(  52) = (   0.8226000   0.9274000   0.3621712  )
        53           Li  tau(  53) = (   0.3226000   0.0726000   0.3621712  )
        54           Li  tau(  54) = (   0.6774000   0.0726000   0.8450661  )
        55           Li  tau(  55) = (   0.8226000   0.0726000   0.1207237  )
        56           Li  tau(  56) = (   0.1774000   0.0726000   0.6036186  )
        57           Li  tau(  57) = (   0.6774000   0.5726000   0.1207237  )
        58           Li  tau(  58) = (   0.3226000   0.5726000   0.6036186  )
        59           Li  tau(  59) = (   0.1774000   0.5726000   0.3621712  )
        60           Li  tau(  60) = (   0.8226000   0.5726000   0.8450661  )
        61           Li  tau(  61) = (   0.3226000   0.4274000   0.8450661  )
        62           Li  tau(  62) = (   0.6774000   0.4274000   0.3621712  )
        63           Li  tau(  63) = (   0.8226000   0.4274000   0.6036186  )
        64           Li  tau(  64) = (   0.1774000   0.4274000   0.1207237  )
        65           Li  tau(  65) = (   0.3370000   0.8300000   0.9127680  )
        66           Li  tau(  66) = (   0.6630000   0.8300000   0.4298730  )
        67           Li  tau(  67) = (   0.0800000   0.5870000   0.1884256  )
        68           Li  tau(  68) = (   0.9200000   0.5870000   0.6713205  )
        69           Li  tau(  69) = (   0.6630000   0.1700000   0.0530219  )
        70           Li  tau(  70) = (   0.3370000   0.1700000   0.5359168  )
        71           Li  tau(  71) = (   0.9200000   0.4130000   0.7773642  )
        72           Li  tau(  72) = (   0.0800000   0.4130000   0.2944693  )
        73           Li  tau(  73) = (   0.3370000   0.6700000   0.4298730  )
        74           Li  tau(  74) = (   0.6630000   0.6700000   0.9127680  )
        75           Li  tau(  75) = (   0.0800000   0.9130000   0.6713205  )
        76           Li  tau(  76) = (   0.9200000   0.9130000   0.1884256  )
        77           Li  tau(  77) = (   0.6630000   0.3300000   0.5359168  )
        78           Li  tau(  78) = (   0.3370000   0.3300000   0.0530219  )
        79           Li  tau(  79) = (   0.9200000   0.0870000   0.2944693  )
        80           Li  tau(  80) = (   0.0800000   0.0870000   0.7773642  )
        81           Li  tau(  81) = (   0.8370000   0.3300000   0.4298730  )
        82           Li  tau(  82) = (   0.1630000   0.3300000   0.9127680  )
        83           Li  tau(  83) = (   0.5800000   0.0870000   0.6713205  )
        84           Li  tau(  84) = (   0.4200000   0.0870000   0.1884256  )
        85           Li  tau(  85) = (   0.1630000   0.6700000   0.5359168  )
        86           Li  tau(  86) = (   0.8370000   0.6700000   0.0530219  )
        87           Li  tau(  87) = (   0.4200000   0.9130000   0.2944693  )
        88           Li  tau(  88) = (   0.5800000   0.9130000   0.7773642  )
        89           Li  tau(  89) = (   0.8370000   0.1700000   0.9127680  )
        90           Li  tau(  90) = (   0.1630000   0.1700000   0.4298730  )
        91           Li  tau(  91) = (   0.5800000   0.4130000   0.1884256  )
        92           Li  tau(  92) = (   0.4200000   0.4130000   0.6713205  )
        93           Li  tau(  93) = (   0.1630000   0.8300000   0.0530219  )
        94           Li  tau(  94) = (   0.8370000   0.8300000   0.5359168  )
        95           Li  tau(  95) = (   0.4200000   0.5870000   0.7773642  )
        96           Li  tau(  96) = (   0.5800000   0.5870000   0.2944693  )
        97           O   tau(  97) = (   0.3051000   0.7160000   0.5778320  )
        98           O   tau(  98) = (   0.6949000   0.7160000   0.0949371  )
        99           O   tau(  99) = (   0.9660000   0.5551000   0.8192795  )
       100           O   tau( 100) = (   0.0340000   0.5551000   0.3363846  )
       101           O   tau( 101) = (   0.6949000   0.2840000   0.3879578  )
       102           O   tau( 102) = (   0.3051000   0.2840000   0.8708527  )
       103           O   tau( 103) = (   0.0340000   0.4449000   0.1465103  )
       104           O   tau( 104) = (   0.9660000   0.4449000   0.6294052  )
       105           O   tau( 105) = (   0.3051000   0.7840000   0.0949371  )
       106           O   tau( 106) = (   0.6949000   0.7840000   0.5778320  )
       107           O   tau( 107) = (   0.9660000   0.9449000   0.3363846  )
       108           O   tau( 108) = (   0.0340000   0.9449000   0.8192795  )
       109           O   tau( 109) = (   0.6949000   0.2160000   0.8708527  )
       110           O   tau( 110) = (   0.3051000   0.2160000   0.3879578  )
       111           O   tau( 111) = (   0.0340000   0.0551000   0.6294052  )
       112           O   tau( 112) = (   0.9660000   0.0551000   0.1465103  )
       113           O   tau( 113) = (   0.8051000   0.2160000   0.0949371  )
       114           O   tau( 114) = (   0.1949000   0.2160000   0.5778320  )
       115           O   tau( 115) = (   0.4660000   0.0551000   0.3363846  )
       116           O   tau( 116) = (   0.5340000   0.0551000   0.8192795  )
       117           O   tau( 117) = (   0.1949000   0.7840000   0.8708527  )
       118           O   tau( 118) = (   0.8051000   0.7840000   0.3879578  )
       119           O   tau( 119) = (   0.5340000   0.9449000   0.6294052  )
       120           O   tau( 120) = (   0.4660000   0.9449000   0.1465103  )
       121           O   tau( 121) = (   0.8051000   0.2840000   0.5778320  )
       122           O   tau( 122) = (   0.1949000   0.2840000   0.0949371  )
       123           O   tau( 123) = (   0.4660000   0.4449000   0.8192795  )
       124           O   tau( 124) = (   0.5340000   0.4449000   0.3363846  )
       125           O   tau( 125) = (   0.1949000   0.7160000   0.3879578  )
       126           O   tau( 126) = (   0.8051000   0.7160000   0.8708527  )
       127           O   tau( 127) = (   0.5340000   0.5551000   0.1465103  )
       128           O   tau( 128) = (   0.4660000   0.5551000   0.6294052  )
       129           O   tau( 129) = (   0.1019000   0.8043000   0.2091901  )
       130           O   tau( 130) = (   0.8981000   0.8043000   0.6920850  )
       131           O   tau( 131) = (   0.0543000   0.3519000   0.4506375  )
       132           O   tau( 132) = (   0.9457000   0.3519000   0.9335324  )
       133           O   tau( 133) = (   0.8981000   0.1957000   0.7565997  )
       134           O   tau( 134) = (   0.1019000   0.1957000   0.2737048  )
       135           O   tau( 135) = (   0.9457000   0.6481000   0.5151523  )
       136           O   tau( 136) = (   0.0543000   0.6481000   0.0322574  )
       137           O   tau( 137) = (   0.1019000   0.6957000   0.6920850  )
       138           O   tau( 138) = (   0.8981000   0.6957000   0.2091901  )
       139           O   tau( 139) = (   0.0543000   0.1481000   0.9335324  )
       140           O   tau( 140) = (   0.9457000   0.1481000   0.4506375  )
       141           O   tau( 141) = (   0.8981000   0.3043000   0.2737048  )
       142           O   tau( 142) = (   0.1019000   0.3043000   0.7565997  )
       143           O   tau( 143) = (   0.9457000   0.8519000   0.0322574  )
       144           O   tau( 144) = (   0.0543000   0.8519000   0.5151523  )
       145           O   tau( 145) = (   0.6019000   0.3043000   0.6920850  )
       146           O   tau( 146) = (   0.3981000   0.3043000   0.2091901  )
       147           O   tau( 147) = (   0.5543000   0.8519000   0.9335324  )
       148           O   tau( 148) = (   0.4457000   0.8519000   0.4506375  )
       149           O   tau( 149) = (   0.3981000   0.6957000   0.2737048  )
       150           O   tau( 150) = (   0.6019000   0.6957000   0.7565997  )
       151           O   tau( 151) = (   0.4457000   0.1481000   0.0322574  )
       152           O   tau( 152) = (   0.5543000   0.1481000   0.5151523  )
       153           O   tau( 153) = (   0.6019000   0.1957000   0.2091901  )
       154           O   tau( 154) = (   0.3981000   0.1957000   0.6920850  )
       155           O   tau( 155) = (   0.5543000   0.6481000   0.4506375  )
       156           O   tau( 156) = (   0.4457000   0.6481000   0.9335324  )
       157           O   tau( 157) = (   0.3981000   0.8043000   0.7565997  )
       158           O   tau( 158) = (   0.6019000   0.8043000   0.2737048  )
       159           O   tau( 159) = (   0.4457000   0.3519000   0.5151523  )
       160           O   tau( 160) = (   0.5543000   0.3519000   0.0322574  )
       161           O   tau( 161) = (   0.2781000   0.8991000   0.2932138  )
       162           O   tau( 162) = (   0.7219000   0.8991000   0.7761087  )
       163           O   tau( 163) = (   0.1491000   0.5281000   0.5346612  )
       164           O   tau( 164) = (   0.8509000   0.5281000   0.0517663  )
       165           O   tau( 165) = (   0.7219000   0.1009000   0.6725760  )
       166           O   tau( 166) = (   0.2781000   0.1009000   0.1896811  )
       167           O   tau( 167) = (   0.8509000   0.4719000   0.4311286  )
       168           O   tau( 168) = (   0.1491000   0.4719000   0.9140235  )
       169           O   tau( 169) = (   0.2781000   0.6009000   0.7761087  )
       170           O   tau( 170) = (   0.7219000   0.6009000   0.2932138  )
       171           O   tau( 171) = (   0.1491000   0.9719000   0.0517663  )
       172           O   tau( 172) = (   0.8509000   0.9719000   0.5346612  )
       173           O   tau( 173) = (   0.7219000   0.3991000   0.1896811  )
       174           O   tau( 174) = (   0.2781000   0.3991000   0.6725760  )
       175           O   tau( 175) = (   0.8509000   0.0281000   0.9140235  )
       176           O   tau( 176) = (   0.1491000   0.0281000   0.4311286  )
       177           O   tau( 177) = (   0.7781000   0.3991000   0.7761087  )
       178           O   tau( 178) = (   0.2219000   0.3991000   0.2932138  )
       179           O   tau( 179) = (   0.6491000   0.0281000   0.0517663  )
       180           O   tau( 180) = (   0.3509000   0.0281000   0.5346612  )
       181           O   tau( 181) = (   0.2219000   0.6009000   0.1896811  )
       182           O   tau( 182) = (   0.7781000   0.6009000   0.6725760  )
       183           O   tau( 183) = (   0.3509000   0.9719000   0.9140235  )
       184           O   tau( 184) = (   0.6491000   0.9719000   0.4311286  )
       185           O   tau( 185) = (   0.7781000   0.1009000   0.2932138  )
       186           O   tau( 186) = (   0.2219000   0.1009000   0.7761087  )
       187           O   tau( 187) = (   0.6491000   0.4719000   0.5346612  )
       188           O   tau( 188) = (   0.3509000   0.4719000   0.0517663  )
       189           O   tau( 189) = (   0.2219000   0.8991000   0.6725760  )
       190           O   tau( 190) = (   0.7781000   0.8991000   0.1896811  )
       191           O   tau( 191) = (   0.3509000   0.5281000   0.4311286  )
       192           O   tau( 192) = (   0.6491000   0.5281000   0.9140235  )

     number of k points=     1  Fermi-Dirac smearing, width (Ry)=  0.0032
                       cart. coord. in units 2pi/alat
        k(    1) = (   0.0000000   0.0000000   0.0000000), wk =   1.0000000

     Dense  grid:  2811522 G-vectors     FFT dimensions: ( 225, 225, 216)

     Estimated max dynamical RAM per process >     983.29 MB

     Estimated total dynamical RAM >      46.09 GB
     Generating pointlists ...
     new r_m :   0.0588 (alat units)  1.4581 (a.u.) for type    1
     new r_m :   0.0588 (alat units)  1.4581 (a.u.) for type    2
     new r_m :   0.0778 (alat units)  1.9295 (a.u.) for type    3
     new r_m :   0.0661 (alat units)  1.6380 (a.u.) for type    4

     Initial potential from superposition of free atoms

     starting charge 1199.49285, renormalised to 1200.00000
     Starting wfcs are  896 randomized atomic wfcs

     total cpu time spent up to now is      133.2 secs

     Self-consistent Calculation

     iteration #  1     ecut=   200.00 Ry     beta= 0.70
     Davidson diagonalization with overlap
     ethr =  1.00E-02,  avg # of iterations =  3.5

     total cpu time spent up to now is      424.0 secs

     total energy              =   -7284.01222598 Ry
     estimated scf accuracy    <      56.47262034 Ry

     total magnetization       =     0.00 Bohr mag/cell
     absolute magnetization    =    15.41 Bohr mag/cell

     iteration #  2     ecut=   200.00 Ry     beta= 0.70
     Davidson diagonalization with overlap
     ethr =  4.71E-03,  avg # of iterations =  4.0

     total cpu time spent up to now is      784.4 secs

     total energy              =   -7285.64004042 Ry
     estimated scf accuracy    <     116.78797306 Ry

     total magnetization       =     0.19 Bohr mag/cell
     absolute magnetization    =     8.95 Bohr mag/cell

     iteration #  3     ecut=   200.00 Ry     beta= 0.70
     Davidson diagonalization with overlap
     ethr =  4.71E-03,  avg # of iterations =  3.0

     total cpu time spent up to now is     1088.9 secs

     total energy              =   -7310.02484450 Ry
     estimated scf accuracy    <       2.14196528 Ry

     total magnetization       =    -0.00 Bohr mag/cell
     absolute magnetization    =     6.52 Bohr mag/cell

     iteration #  4     ecut=   200.00 Ry     beta= 0.70
     Davidson diagonalization with overlap
     ethr =  1.78E-04,  avg # of iterations = 21.5

     total cpu time spent up to now is     1872.3 secs

     total energy              =   -7311.01797028 Ry
     estimated scf accuracy    <       0.79197682 Ry

     total magnetization       =     0.00 Bohr mag/cell
     absolute magnetization    =     4.26 Bohr mag/cell

     iteration #  5     ecut=   200.00 Ry     beta= 0.70
     Davidson diagonalization with overlap
     c_bands:  2 eigenvalues not converged
     ethr =  6.60E-05,  avg # of iterations = 21.0

     total cpu time spent up to now is     2358.3 secs

     total energy              =   -7311.14348620 Ry
     estimated scf accuracy    <       0.09330966 Ry

     total magnetization       =    -0.00 Bohr mag/cell
     absolute magnetization    =     2.03 Bohr mag/cell

     iteration #  6     ecut=   200.00 Ry     beta= 0.70
     Davidson diagonalization with overlap
     ethr =  7.78E-06,  avg # of iterations = 47.0

     total cpu time spent up to now is     3447.0 secs

     total energy              =   -7311.19100721 Ry
     estimated scf accuracy    <       0.01400571 Ry

     total magnetization       =    -0.00 Bohr mag/cell
     absolute magnetization    =     1.21 Bohr mag/cell

     iteration #  7     ecut=   200.00 Ry     beta= 0.70
     Davidson diagonalization with overlap
     c_bands:  5 eigenvalues not converged
     c_bands:  2 eigenvalues not converged
     ethr =  1.17E-06,  avg # of iterations = 60.0

     total cpu time spent up to now is     4428.2 secs

     total energy              =   -7311.19426784 Ry
     estimated scf accuracy    <       0.00120022 Ry

     total magnetization       =     0.00 Bohr mag/cell
     absolute magnetization    =     0.75 Bohr mag/cell

     iteration #  8     ecut=   200.00 Ry     beta= 0.70
     Davidson diagonalization with overlap
     c_bands:  2 eigenvalues not converged
     c_bands:  3 eigenvalues not converged
     ethr =  1.00E-07,  avg # of iterations = 40.0

     total cpu time spent up to now is     4997.0 secs

     total energy              =   -7311.19470218 Ry
     estimated scf accuracy    <       0.00017280 Ry

     total magnetization       =    -0.00 Bohr mag/cell
     absolute magnetization    =     0.44 Bohr mag/cell

     iteration #  9     ecut=   200.00 Ry     beta= 0.70
     Davidson diagonalization with overlap
     c_bands:  5 eigenvalues not converged
     ethr =  1.44E-08,  avg # of iterations = 13.0

     total cpu time spent up to now is     5318.4 secs

     total energy              =   -7311.19477918 Ry
     estimated scf accuracy    <       0.00009395 Ry

     total magnetization       =     0.00 Bohr mag/cell
     absolute magnetization    =     0.24 Bohr mag/cell

     iteration # 10     ecut=   200.00 Ry     beta= 0.70
     Davidson diagonalization with overlap
     ethr =  7.83E-09,  avg # of iterations =  4.0

     total cpu time spent up to now is     5605.8 secs

     total energy              =   -7311.19481759 Ry
     estimated scf accuracy    <       0.00004370 Ry

     total magnetization       =    -0.00 Bohr mag/cell
     absolute magnetization    =     0.14 Bohr mag/cell

     iteration # 11     ecut=   200.00 Ry     beta= 0.70
     Davidson diagonalization with overlap
     ethr =  3.64E-09,  avg # of iterations =  4.0

     total cpu time spent up to now is     5872.1 secs

     total energy              =   -7311.19483104 Ry
     estimated scf accuracy    <       0.00000496 Ry

     total magnetization       =    -0.00 Bohr mag/cell
     absolute magnetization    =     0.05 Bohr mag/cell

     iteration # 12     ecut=   200.00 Ry     beta= 0.70
     Davidson diagonalization with overlap
     ethr =  4.13E-10,  avg # of iterations =  5.5

     total cpu time spent up to now is     6197.9 secs

     total energy              =   -7311.19483310 Ry
     estimated scf accuracy    <       0.00000182 Ry

     total magnetization       =     0.00 Bohr mag/cell
     absolute magnetization    =     0.02 Bohr mag/cell

     iteration # 13     ecut=   200.00 Ry     beta= 0.70
     Davidson diagonalization with overlap
     ethr =  1.52E-10,  avg # of iterations =  4.5

     Magnetic moment per site:
     atom:    1    charge:    6.5752    magn:   -0.0000    constr:    0.0000
     atom:    2    charge:    6.5752    magn:   -0.0000    constr:    0.0000
     atom:    3    charge:    6.5751    magn:   -0.0000    constr:    0.0000
     atom:    4    charge:    6.5751    magn:   -0.0000    constr:    0.0000
     atom:    5    charge:    6.5752    magn:   -0.0000    constr:    0.0000
     atom:    6    charge:    6.5752    magn:   -0.0000    constr:    0.0000
     atom:    7    charge:    6.5751    magn:   -0.0000    constr:    0.0000
     atom:    8    charge:    6.5751    magn:   -0.0000    constr:    0.0000
     atom:    9    charge:    6.5866    magn:   -0.0000    constr:    0.0000
     atom:   10    charge:    6.5866    magn:   -0.0000    constr:    0.0000
     atom:   11    charge:    6.5866    magn:   -0.0000    constr:    0.0000
     atom:   12    charge:    6.5866    magn:   -0.0000    constr:    0.0000
     atom:   13    charge:    6.5866    magn:   -0.0000    constr:    0.0000
     atom:   14    charge:    6.5866    magn:   -0.0000    constr:    0.0000
     atom:   15    charge:    6.5866    magn:   -0.0000    constr:    0.0000
     atom:   16    charge:    6.5865    magn:   -0.0000    constr:    0.0000
     atom:   17    charge:    6.5866    magn:   -0.0000    constr:    0.0000
     atom:   18    charge:    6.5866    magn:   -0.0000    constr:    0.0000
     atom:   19    charge:    6.5865    magn:   -0.0000    constr:    0.0000
     atom:   20    charge:    6.5866    magn:   -0.0000    constr:    0.0000
     atom:   21    charge:    6.5865    magn:   -0.0000    constr:    0.0000
     atom:   22    charge:    6.5865    magn:   -0.0000    constr:    0.0000
     atom:   23    charge:    6.5866    magn:   -0.0000    constr:    0.0000
     atom:   24    charge:    6.5866    magn:   -0.0000    constr:    0.0000
     atom:   25    charge:    7.5744    magn:   -0.0000    constr:    0.0000
     atom:   26    charge:    7.5744    magn:   -0.0000    constr:    0.0000
     atom:   27    charge:    7.5745    magn:   -0.0000    constr:    0.0000
     atom:   28    charge:    7.5745    magn:   -0.0000    constr:    0.0000
     atom:   29    charge:    7.5744    magn:   -0.0000    constr:    0.0000
     atom:   30    charge:    7.5744    magn:   -0.0000    constr:    0.0000
     atom:   31    charge:    7.5744    magn:   -0.0000    constr:    0.0000
     atom:   32    charge:    7.5744    magn:   -0.0000    constr:    0.0000
     atom:   33    charge:    7.5744    magn:   -0.0000    constr:    0.0000
     atom:   34    charge:    7.5744    magn:   -0.0000    constr:    0.0000
     atom:   35    charge:    7.5744    magn:   -0.0000    constr:    0.0000
     atom:   36    charge:    7.5744    magn:   -0.0000    constr:    0.0000
     atom:   37    charge:    7.5745    magn:   -0.0000    constr:    0.0000
     atom:   38    charge:    7.5745    magn:   -0.0000    constr:    0.0000
     atom:   39    charge:    7.5745    magn:   -0.0000    constr:    0.0000
     atom:   40    charge:    7.5745    magn:   -0.0000    constr:    0.0000
     atom:   41    charge:    2.1583    magn:   -0.0000    constr:    0.0000
     atom:   42    charge:    2.1583    magn:   -0.0000    constr:    0.0000
     atom:   43    charge:    2.1583    magn:   -0.0000    constr:    0.0000
     atom:   44    charge:    2.1583    magn:   -0.0000    constr:    0.0000
     atom:   45    charge:    2.1583    magn:   -0.0000    constr:    0.0000
     atom:   46    charge:    2.1583    magn:   -0.0000    constr:    0.0000
     atom:   47    charge:    2.1583    magn:   -0.0000    constr:    0.0000
     atom:   48    charge:    2.1583    magn:   -0.0000    constr:    0.0000
     atom:   49    charge:    2.1026    magn:   -0.0000    constr:    0.0000
     atom:   50    charge:    2.1026    magn:   -0.0000    constr:    0.0000
     atom:   51    charge:    2.1026    magn:   -0.0000    constr:    0.0000
     atom:   52    charge:    2.1026    magn:   -0.0000    constr:    0.0000
     atom:   53    charge:    2.1026    magn:   -0.0000    constr:    0.0000
     atom:   54    charge:    2.1026    magn:   -0.0000    constr:    0.0000
     atom:   55    charge:    2.1026    magn:   -0.0000    constr:    0.0000
     atom:   56    charge:    2.1026    magn:   -0.0000    constr:    0.0000
     atom:   57    charge:    2.1026    magn:   -0.0000    constr:    0.0000
     atom:   58    charge:    2.1026    magn:   -0.0000    constr:    0.0000
     atom:   59    charge:    2.1026    magn:   -0.0000    constr:    0.0000
     atom:   60    charge:    2.1026    magn:   -0.0000    constr:    0.0000
     atom:   61    charge:    2.1026    magn:   -0.0000    constr:    0.0000
     atom:   62    charge:    2.1026    magn:   -0.0000    constr:    0.0000
     atom:   63    charge:    2.1026    magn:   -0.0000    constr:    0.0000
     atom:   64    charge:    2.1026    magn:   -0.0000    constr:    0.0000
     atom:   65    charge:    2.1113    magn:   -0.0000    constr:    0.0000
     atom:   66    charge:    2.1113    magn:   -0.0000    constr:    0.0000
     atom:   67    charge:    2.1113    magn:   -0.0000    constr:    0.0000
     atom:   68    charge:    2.1113    magn:   -0.0000    constr:    0.0000
     atom:   69    charge:    2.1113    magn:   -0.0000    constr:    0.0000
     atom:   70    charge:    2.1113    magn:   -0.0000    constr:    0.0000
     atom:   71    charge:    2.1113    magn:   -0.0000    constr:    0.0000
     atom:   72    charge:    2.1113    magn:   -0.0000    constr:    0.0000
     atom:   73    charge:    2.1112    magn:   -0.0000    constr:    0.0000
     atom:   74    charge:    2.1112    magn:   -0.0000    constr:    0.0000
     atom:   75    charge:    2.1113    magn:   -0.0000    constr:    0.0000
     atom:   76    charge:    2.1113    magn:   -0.0000    constr:    0.0000
     atom:   77    charge:    2.1112    magn:   -0.0000    constr:    0.0000
     atom:   78    charge:    2.1112    magn:   -0.0000    constr:    0.0000
     atom:   79    charge:    2.1113    magn:   -0.0000    constr:    0.0000
     atom:   80    charge:    2.1113    magn:   -0.0000    constr:    0.0000
     atom:   81    charge:    2.1112    magn:   -0.0000    constr:    0.0000
     atom:   82    charge:    2.1112    magn:   -0.0000    constr:    0.0000
     atom:   83    charge:    2.1112    magn:   -0.0000    constr:    0.0000
     atom:   84    charge:    2.1112    magn:   -0.0000    constr:    0.0000
     atom:   85    charge:    2.1112    magn:   -0.0000    constr:    0.0000
     atom:   86    charge:    2.1112    magn:   -0.0000    constr:    0.0000
     atom:   87    charge:    2.1112    magn:   -0.0000    constr:    0.0000
     atom:   88    charge:    2.1112    magn:   -0.0000    constr:    0.0000
     atom:   89    charge:    2.1113    magn:   -0.0000    constr:    0.0000
     atom:   90    charge:    2.1113    magn:   -0.0000    constr:    0.0000
     atom:   91    charge:    2.1113    magn:   -0.0000    constr:    0.0000
     atom:   92    charge:    2.1113    magn:   -0.0000    constr:    0.0000
     atom:   93    charge:    2.1113    magn:   -0.0000    constr:    0.0000
     atom:   94    charge:    2.1113    magn:   -0.0000    constr:    0.0000
     atom:   95    charge:    2.1113    magn:   -0.0000    constr:    0.0000
     atom:   96    charge:    2.1113    magn:   -0.0000    constr:    0.0000
     atom:   97    charge:    5.2031    magn:    0.0001    constr:    0.0000
     atom:   98    charge:    5.2031    magn:    0.0000    constr:    0.0000
     atom:   99    charge:    5.2031    magn:    0.0001    constr:    0.0000
     atom:  100    charge:    5.2031    magn:    0.0001    constr:    0.0000
     atom:  101    charge:    5.2031    magn:    0.0001    constr:    0.0000
     atom:  102    charge:    5.2031    magn:    0.0001    constr:    0.0000
     atom:  103    charge:    5.2031    magn:    0.0001    constr:    0.0000
     atom:  104    charge:    5.2031    magn:    0.0001    constr:    0.0000
     atom:  105    charge:    5.2028    magn:    0.0000    constr:    0.0000
     atom:  106    charge:    5.2027    magn:    0.0001    constr:    0.0000
     atom:  107    charge:    5.2028    magn:    0.0001    constr:    0.0000
     atom:  108    charge:    5.2028    magn:    0.0001    constr:    0.0000
     atom:  109    charge:    5.2028    magn:    0.0001    constr:    0.0000
     atom:  110    charge:    5.2028    magn:    0.0000    constr:    0.0000
     atom:  111    charge:    5.2028    magn:    0.0001    constr:    0.0000
     atom:  112    charge:    5.2027    magn:    0.0001    constr:    0.0000
     atom:  113    charge:    5.2030    magn:    0.0001    constr:    0.0000
     atom:  114    charge:    5.2030    magn:    0.0001    constr:    0.0000
     atom:  115    charge:    5.2030    magn:    0.0000    constr:    0.0000
     atom:  116    charge:    5.2030    magn:    0.0001    constr:    0.0000
     atom:  117    charge:    5.2030    magn:    0.0000    constr:    0.0000
     atom:  118    charge:    5.2030    magn:    0.0001    constr:    0.0000
     atom:  119    charge:    5.2030    magn:    0.0001    constr:    0.0000
     atom:  120    charge:    5.2030    magn:    0.0001    constr:    0.0000
     atom:  121    charge:    5.2031    magn:    0.0001    constr:    0.0000
     atom:  122    charge:    5.2031    magn:    0.0001    constr:    0.0000
     atom:  123    charge:    5.2031    magn:    0.0001    constr:    0.0000
     atom:  124    charge:    5.2031    magn:    0.0001    constr:    0.0000
     atom:  125    charge:    5.2031    magn:    0.0001    constr:    0.0000
     atom:  126    charge:    5.2031    magn:    0.0001    constr:    0.0000
     atom:  127    charge:    5.2031    magn:    0.0001    constr:    0.0000
     atom:  128    charge:    5.2031    magn:    0.0001    constr:    0.0000
     atom:  129    charge:    5.1734    magn:    0.0001    constr:    0.0000
     atom:  130    charge:    5.1733    magn:    0.0001    constr:    0.0000
     atom:  131    charge:    5.1733    magn:    0.0001    constr:    0.0000
     atom:  132    charge:    5.1733    magn:    0.0001    constr:    0.0000
     atom:  133    charge:    5.1734    magn:    0.0001    constr:    0.0000
     atom:  134    charge:    5.1734    magn:    0.0001    constr:    0.0000
     atom:  135    charge:    5.1733    magn:    0.0001    constr:    0.0000
     atom:  136    charge:    5.1734    magn:    0.0001    constr:    0.0000
     atom:  137    charge:    5.1733    magn:    0.0001    constr:    0.0000
     atom:  138    charge:    5.1734    magn:    0.0001    constr:    0.0000
     atom:  139    charge:    5.1732    magn:    0.0001    constr:    0.0000
     atom:  140    charge:    5.1733    magn:    0.0001    constr:    0.0000
     atom:  141    charge:    5.1734    magn:    0.0001    constr:    0.0000
     atom:  142    charge:    5.1733    magn:    0.0001    constr:    0.0000
     atom:  143    charge:    5.1733    magn:    0.0001    constr:    0.0000
     atom:  144    charge:    5.1732    magn:    0.0001    constr:    0.0000
     atom:  145    charge:    5.1730    magn:    0.0001    constr:    0.0000
     atom:  146    charge:    5.1729    magn:    0.0001    constr:    0.0000
     atom:  147    charge:    5.1732    magn:    0.0001    constr:    0.0000
     atom:  148    charge:    5.1732    magn:    0.0001    constr:    0.0000
     atom:  149    charge:    5.1729    magn:    0.0001    constr:    0.0000
     atom:  150    charge:    5.1730    magn:    0.0001    constr:    0.0000
     atom:  151    charge:    5.1732    magn:    0.0001    constr:    0.0000
     atom:  152    charge:    5.1732    magn:    0.0001    constr:    0.0000
     atom:  153    charge:    5.1734    magn:    0.0001    constr:    0.0000
     atom:  154    charge:    5.1734    magn:    0.0001    constr:    0.0000
     atom:  155    charge:    5.1733    magn:    0.0001    constr:    0.0000
     atom:  156    charge:    5.1733    magn:    0.0001    constr:    0.0000
     atom:  157    charge:    5.1734    magn:    0.0001    constr:    0.0000
     atom:  158    charge:    5.1733    magn:    0.0001    constr:    0.0000
     atom:  159    charge:    5.1733    magn:    0.0001    constr:    0.0000
     atom:  160    charge:    5.1733    magn:    0.0001    constr:    0.0000
     atom:  161    charge:    5.1926    magn:    0.0000    constr:    0.0000
     atom:  162    charge:    5.1926    magn:    0.0001    constr:    0.0000
     atom:  163    charge:    5.1927    magn:    0.0001    constr:    0.0000
     atom:  164    charge:    5.1928    magn:    0.0000    constr:    0.0000
     atom:  165    charge:    5.1926    magn:    0.0001    constr:    0.0000
     atom:  166    charge:    5.1927    magn:    0.0000    constr:    0.0000
     atom:  167    charge:    5.1928    magn:    0.0000    constr:    0.0000
     atom:  168    charge:    5.1927    magn:    0.0000    constr:    0.0000
     atom:  169    charge:    5.1927    magn:    0.0001    constr:    0.0000
     atom:  170    charge:    5.1927    magn:    0.0001    constr:    0.0000
     atom:  171    charge:    5.1926    magn:    0.0000    constr:    0.0000
     atom:  172    charge:    5.1925    magn:    0.0001    constr:    0.0000
     atom:  173    charge:    5.1927    magn:    0.0001    constr:    0.0000
     atom:  174    charge:    5.1927    magn:    0.0001    constr:    0.0000
     atom:  175    charge:    5.1926    magn:    0.0000    constr:    0.0000
     atom:  176    charge:    5.1926    magn:    0.0000    constr:    0.0000
     atom:  177    charge:    5.1932    magn:    0.0000    constr:    0.0000
     atom:  178    charge:    5.1931    magn:    0.0001    constr:    0.0000
     atom:  179    charge:    5.1930    magn:    0.0001    constr:    0.0000
     atom:  180    charge:    5.1931    magn:    0.0000    constr:    0.0000
     atom:  181    charge:    5.1931    magn:    0.0000    constr:    0.0000
     atom:  182    charge:    5.1931    magn:    0.0001    constr:    0.0000
     atom:  183    charge:    5.1931    magn:    0.0000    constr:    0.0000
     atom:  184    charge:    5.1930    magn:    0.0000    constr:    0.0000
     atom:  185    charge:    5.1930    magn:    0.0001    constr:    0.0000
     atom:  186    charge:    5.1930    magn:    0.0001    constr:    0.0000
     atom:  187    charge:    5.1932    magn:    0.0000    constr:    0.0000
     atom:  188    charge:    5.1932    magn:    0.0001    constr:    0.0000
     atom:  189    charge:    5.1930    magn:    0.0001    constr:    0.0000
     atom:  190    charge:    5.1930    magn:    0.0001    constr:    0.0000
     atom:  191    charge:    5.1932    magn:    0.0000    constr:    0.0000
     atom:  192    charge:    5.1932    magn:    0.0001    constr:    0.0000

     total cpu time spent up to now is     6479.0 secs

     End of self-consistent calculation

 ------ SPIN UP ------------


          k = 0.0000 0.0000 0.0000 (351478 PWs)   bands (ev):

   -38.5960 -38.5959 -38.5959 -38.5959 -38.5958 -38.5958 -38.5958 -38.5958
   -38.5958 -38.5958 -38.5958 -38.5958 -38.5957 -38.5957 -38.5957 -38.5956
   -35.1749 -35.1748 -35.1746 -35.1746 -35.1730 -35.1730 -35.1729 -35.1729
   -35.1728 -35.1728 -35.1727 -35.1727 -35.1711 -35.1710 -35.1708 -35.1708
   -34.9584 -34.9577 -34.9576 -34.9573 -34.9565 -34.9563 -34.9563 -34.9562
   -34.9561 -34.9561 -34.9560 -34.9559 -34.9551 -34.9546 -34.9544 -34.9543
   -34.9434 -34.9431 -34.9430 -34.9428 -34.9428 -34.9427 -34.9427 -34.9427
   -34.9426 -34.9426 -34.9425 -34.9425 -34.9424 -34.9424 -34.9423 -34.9422
   -33.8123 -33.8123 -33.8123 -33.8121 -33.8121 -33.8118 -33.8118 -33.8117
   -21.5821 -21.5782 -21.5722 -21.5722 -21.5720 -21.5720 -21.5681 -21.5660
   -21.4993 -21.4992 -21.4873 -21.4842 -21.4673 -21.4673 -21.4646 -21.4645
   -21.4609 -21.4609 -21.4605 -21.4605 -21.4329 -21.4322 -21.4322 -21.4315
   -16.9388 -16.9388 -16.9387 -16.9386 -16.9379 -16.9378 -16.9374 -16.9374
   -16.9372 -16.9370 -16.9369 -16.9368 -16.9367 -16.9361 -16.9361 -16.9346
   -16.9002 -16.9002 -16.9001 -16.9001 -16.8992 -16.8991 -16.8981 -16.8980
   -16.8979 -16.8949 -16.8948 -16.8937 -16.8937 -16.8931 -16.8930 -16.8878
   -16.8519 -16.8519 -16.8519 -16.8518 -16.8508 -16.8503 -16.8496 -16.8496
   -16.8495 -16.8494 -16.8488 -16.8487 -16.8471 -16.8466 -16.8465 -16.8421
    -8.6319  -8.6319  -8.4795  -8.4794  -8.4723  -8.4271  -8.4271  -8.4214
    -8.4214  -8.4093  -8.3465  -8.3465  -8.3030  -8.3030  -8.2937  -8.2545
    -8.2273  -8.2272  -8.1710  -8.1710  -8.1314  -8.1314  -8.0220  -8.0220
    -8.0191  -8.0190  -8.0132  -8.0132  -7.9921  -7.9794  -7.9755  -7.9574
    -7.9403  -7.9100  -7.8837  -7.8837  -7.8809  -7.8699  -7.8698  -7.8603
    -7.8603  -7.8468  -7.8468  -7.8363  -7.8362  -7.8307  -7.8306  -7.7856
    -7.7741  -7.7601  -7.7600  -7.6666  -7.6666  -7.6351  -7.5976  -7.5783
    -7.5611  -7.5611  -7.5380  -7.5379  -7.5251  -7.5251  -7.5140  -7.5140
    -7.5047  -7.4646  -7.4646  -7.4431  -7.3989  -7.3989  -7.3729  -7.3691
    -7.3691  -7.3501  -7.3500  -7.2896  -7.2896  -7.2334  -7.2334  -7.2326
    -7.2056  -7.1943  -7.1880  -7.1880  -7.1405  -7.1404  -7.1394  -7.0684
    -7.0683  -7.0602  -7.0602  -7.0229  -7.0229  -6.9936  -6.9935  -6.8945
    -5.1757  -5.1757  -5.1680  -5.1680  -5.1477  -5.1477  -5.1458  -5.1458
    -5.1454  -5.1454  -5.1125  -5.1125  -5.0929  -5.0841  -5.0841  -5.0591
    -5.0591  -5.0483  -5.0195  -4.9837  -4.9837  -4.9376  -4.9376  -4.9364
    -4.9364  -4.9364  -4.9261  -4.9261  -4.9256  -4.9256  -4.8648  -4.8648
    -4.8625  -4.7809  -4.7746  -4.7746  -4.7366  -4.7029  -4.6835  -4.6776
    -4.6730  -4.6730  -4.6455  -4.6454  -4.5840  -4.5707  -4.5693  -4.5176
    -4.5176  -4.5168  -4.5168  -4.4928  -4.4927  -4.4914  -4.4914  -4.4290
    -4.4290  -4.3911  -4.3911  -4.3858  -4.3761  -4.3761  -4.3668  -4.3668
    -4.3445  -4.3445  -4.3177  -4.3177  -4.2949  -4.1678  -4.1678  -4.1286
     4.5819   4.8179   4.8179   4.8840   4.8840   4.8953   4.9239   4.9383
     4.9670   4.9671   4.9965   5.0086   5.0491   5.0491   5.0618   5.0618
     5.0818   5.0818   5.1702   5.1703   5.1928   5.2287   5.2287   5.2895
     5.2895   5.3026   5.3026   5.3144   5.3144   5.3535   5.3679   5.3679
     5.3812   5.3812   5.3938   5.3938   5.4285   5.4369   5.4643   5.4643
     5.4697   5.4717   5.4717   5.4753   5.4753   5.4774   5.4775   5.4949
     5.5350   5.5350   5.5559   5.5559   5.6036   5.6041   5.6041   5.6280
     5.6408   5.6408   5.6504   5.6504   5.6546   5.6789   5.6808   5.6808
     5.6952   5.6953   5.7485   5.7714   5.7714   5.7737   5.8046   5.8046
     5.8190   5.8191   5.8341   5.8341   5.8390   5.8400   5.8400   5.8411
     5.8411   5.8487   5.8487   5.8577   5.8577   5.8616   5.8628   5.8733
     5.8734   5.8849   5.8849   5.8964   5.8964   5.9109   5.9201   5.9202
     5.9785   5.9848   5.9870   6.0015   6.0015   6.0187   6.0270   6.0572
     6.0572   6.0599   6.0854   6.0854   6.1044   6.1209   6.1291   6.1557
     6.1570   6.1570   6.2489   6.2489   6.2756   6.3200   6.3200   6.3434
     6.3434   6.3610   6.3610   6.3734   6.4108   6.4108   6.4511   6.4511
     6.4693   6.4693   6.5108   6.5109   6.5134   6.5134   6.5196   6.5370
     6.5446   6.5446   6.5516   6.5517   6.5705   6.5763   6.5766   6.5961
     6.5962   6.6507   6.6508   6.6635   6.6638   6.6638   6.7127   6.7210
     6.7211   6.7265   6.7266   6.7414   6.7414   6.8067   6.8136   6.8315
     6.8473   6.8473   6.8862   6.8862   6.8971   6.8971   6.9142   6.9142
     6.9637   6.9637   6.9766   6.9777   6.9943   7.0368   7.0369   7.0558
     7.0559   7.0749   7.0749   7.0855   7.0855   7.1447   7.1447   7.2270
     7.2320   7.2320   7.2323   7.2409   7.2410   7.2523   7.2523   7.2524
     7.2874   7.2874   7.2939   7.2939   7.3030   7.3166   7.3166   7.3373
     7.3373   7.3442   7.3442   7.3575   7.3870   7.4006   7.4032   7.4032
     7.4090   7.4098   7.4098   7.4264   7.4264   7.4503   7.4503   7.4524
     7.4524   7.4648   7.4648   7.4666   7.4666   7.4847   7.4868   7.4868
     7.5097   7.5098   7.5149   7.5342   7.5342   7.5588   7.5805   7.5805
     7.5836   7.5836   7.5837   7.6370   7.6417   7.6417   7.6417   7.6417
     7.6583   7.6583   7.6990   7.6990   7.7010   7.7010   7.7162   7.7466
     7.7466   7.7484   7.7701   7.7701   7.7831   7.7841   7.7841   7.7903
     7.7904   7.8278   7.8279   7.8470   7.8731   7.8780   7.8780   7.8793
     7.8863   7.8863   7.9097   7.9335   7.9382   7.9382   7.9410   7.9410
     7.9519   7.9519   7.9704   7.9705   7.9719   7.9720   7.9728   7.9728
     7.9912   7.9912   8.0444   8.0551   8.0635   8.0677   8.0836   8.0836
    12.4920  12.6429  12.6695  12.6695  12.6976  12.7170  12.7170  12.7271
    12.7553  12.7553  12.7803  12.7803  12.7921  12.8351  12.8351  12.8408
    12.8408  12.8460  12.8460  12.8504  12.8504  12.8782  12.8782  12.8859
    12.8859  12.9015  12.9221  12.9444  12.9444  12.9776  12.9776  12.9777
    12.9818  12.9924  12.9924  13.0235  13.0235  13.0270  13.0270  13.0457
    13.0457  13.0751  13.0751  13.0821  13.1313  13.1362  13.1965  13.2036
    13.2037  13.2634  13.2634  13.2663  13.2664  13.2705  13.2806  13.2806
    13.2841  13.2842  13.2887  13.3013  13.3013  13.3214  13.3218  13.3311
    13.3312  13.3341  13.3384  13.3389  13.3452  13.3454  13.3469  13.3539
    13.3541  13.3608  13.3677  13.3707  13.3709  13.3759  13.3763  13.3766
    13.3769  13.3780  13.3804  13.3808  13.3811  13.3821  13.3829  13.3863
    13.3864  13.3930  13.3968  13.4002  13.4005  13.4022  13.4110  13.4114
    13.4117  13.4120  13.4169  13.4286  13.4310  13.4315  13.4318  13.4484
    13.4543  13.4559  13.4577  13.4600  13.4633  13.4644  13.4657  13.4682
    13.4701  13.4714  13.4723  13.4747  13.4855  13.4917  13.4998  13.5055

 ------ SPIN DOWN ----------


          k = 0.0000 0.0000 0.0000 (351478 PWs)   bands (ev):

   -38.5961 -38.5960 -38.5960 -38.5960 -38.5960 -38.5959 -38.5959 -38.5959
   -38.5959 -38.5959 -38.5959 -38.5959 -38.5958 -38.5958 -38.5958 -38.5957
   -35.1748 -35.1747 -35.1745 -35.1745 -35.1729 -35.1729 -35.1728 -35.1728
   -35.1726 -35.1726 -35.1726 -35.1726 -35.1710 -35.1709 -35.1707 -35.1707
   -34.9583 -34.9576 -34.9574 -34.9572 -34.9564 -34.9562 -34.9561 -34.9561
   -34.9560 -34.9560 -34.9559 -34.9557 -34.9550 -34.9545 -34.9543 -34.9542
   -34.9433 -34.9430 -34.9429 -34.9427 -34.9427 -34.9426 -34.9426 -34.9426
   -34.9425 -34.9425 -34.9424 -34.9423 -34.9423 -34.9423 -34.9422 -34.9421
   -33.8122 -33.8122 -33.8121 -33.8120 -33.8119 -33.8117 -33.8117 -33.8115
   -21.5821 -21.5782 -21.5723 -21.5722 -21.5720 -21.5720 -21.5681 -21.5660
   -21.4993 -21.4992 -21.4873 -21.4842 -21.4673 -21.4673 -21.4646 -21.4646
   -21.4609 -21.4609 -21.4605 -21.4605 -21.4329 -21.4323 -21.4322 -21.4316
   -16.9390 -16.9389 -16.9388 -16.9387 -16.9380 -16.9380 -16.9376 -16.9375
   -16.9373 -16.9371 -16.9371 -16.9369 -16.9368 -16.9362 -16.9362 -16.9348
   -16.9003 -16.9003 -16.9002 -16.9002 -16.8993 -16.8993 -16.8982 -16.8981
   -16.8981 -16.8950 -16.8949 -16.8938 -16.8938 -16.8932 -16.8931 -16.8880
   -16.8521 -16.8520 -16.8520 -16.8519 -16.8509 -16.8504 -16.8497 -16.8497
   -16.8496 -16.8496 -16.8489 -16.8489 -16.8472 -16.8467 -16.8466 -16.8422
    -8.6317  -8.6317  -8.4793  -8.4792  -8.4721  -8.4268  -8.4268  -8.4212
    -8.4212  -8.4091  -8.3463  -8.3463  -8.3028  -8.3028  -8.2935  -8.2543
    -8.2270  -8.2270  -8.1707  -8.1707  -8.1312  -8.1311  -8.0217  -8.0217
    -8.0188  -8.0187  -8.0130  -8.0129  -7.9919  -7.9791  -7.9752  -7.9572
    -7.9400  -7.9098  -7.8835  -7.8835  -7.8807  -7.8696  -7.8696  -7.8601
    -7.8600  -7.8466  -7.8466  -7.8360  -7.8360  -7.8305  -7.8304  -7.7853
    -7.7738  -7.7598  -7.7598  -7.6664  -7.6664  -7.6348  -7.5973  -7.5781
    -7.5608  -7.5608  -7.5377  -7.5376  -7.5249  -7.5248  -7.5137  -7.5137
    -7.5044  -7.4643  -7.4643  -7.4429  -7.3987  -7.3986  -7.3727  -7.3688
    -7.3688  -7.3498  -7.3498  -7.2893  -7.2893  -7.2332  -7.2331  -7.2323
    -7.2053  -7.1940  -7.1877  -7.1877  -7.1402  -7.1401  -7.1391  -7.0680
    -7.0680  -7.0599  -7.0599  -7.0226  -7.0226  -6.9932  -6.9932  -6.8941
    -5.1757  -5.1757  -5.1680  -5.1680  -5.1478  -5.1478  -5.1458  -5.1458
    -5.1454  -5.1454  -5.1125  -5.1125  -5.0929  -5.0841  -5.0841  -5.0591
    -5.0591  -5.0483  -5.0195  -4.9837  -4.9837  -4.9376  -4.9376  -4.9364
    -4.9363  -4.9363  -4.9261  -4.9261  -4.9256  -4.9256  -4.8648  -4.8648
    -4.8625  -4.7809  -4.7745  -4.7745  -4.7365  -4.7028  -4.6835  -4.6775
    -4.6729  -4.6729  -4.6454  -4.6454  -4.5840  -4.5707  -4.5692  -4.5175
    -4.5175  -4.5167  -4.5167  -4.4927  -4.4927  -4.4914  -4.4914  -4.4289
    -4.4289  -4.3910  -4.3910  -4.3857  -4.3760  -4.3760  -4.3667  -4.3667
    -4.3445  -4.3445  -4.3176  -4.3176  -4.2948  -4.1678  -4.1678  -4.1285
     4.5820   4.8180   4.8180   4.8841   4.8841   4.8954   4.9240   4.9385
     4.9671   4.9672   4.9966   5.0087   5.0492   5.0492   5.0619   5.0619
     5.0819   5.0820   5.1704   5.1704   5.1929   5.2288   5.2288   5.2896
     5.2896   5.3027   5.3027   5.3146   5.3146   5.3536   5.3680   5.3680
     5.3813   5.3813   5.3939   5.3939   5.4287   5.4371   5.4645   5.4645
     5.4699   5.4718   5.4718   5.4754   5.4754   5.4776   5.4777   5.4950
     5.5352   5.5352   5.5561   5.5561   5.6038   5.6042   5.6042   5.6281
     5.6409   5.6409   5.6505   5.6505   5.6548   5.6790   5.6809   5.6809
     5.6954   5.6954   5.7486   5.7716   5.7716   5.7739   5.8048   5.8048
     5.8192   5.8192   5.8343   5.8343   5.8392   5.8402   5.8402   5.8413
     5.8413   5.8488   5.8488   5.8578   5.8579   5.8618   5.8629   5.8734
     5.8735   5.8851   5.8851   5.8966   5.8966   5.9111   5.9203   5.9203
     5.9787   5.9849   5.9872   6.0016   6.0016   6.0189   6.0272   6.0574
     6.0574   6.0601   6.0856   6.0856   6.1046   6.1211   6.1292   6.1559
     6.1572   6.1572   6.2490   6.2491   6.2758   6.3201   6.3202   6.3435
     6.3435   6.3612   6.3612   6.3736   6.4110   6.4110   6.4513   6.4514
     6.4696   6.4696   6.5110   6.5111   6.5137   6.5137   6.5198   6.5371
     6.5448   6.5448   6.5519   6.5519   6.5707   6.5766   6.5768   6.5963
     6.5964   6.6509   6.6510   6.6637   6.6640   6.6640   6.7129   6.7213
     6.7213   6.7268   6.7268   6.7416   6.7416   6.8070   6.8138   6.8317
     6.8476   6.8476   6.8864   6.8865   6.8973   6.8974   6.9144   6.9144
     6.9640   6.9640   6.9768   6.9780   6.9946   7.0371   7.0371   7.0561
     7.0561   7.0751   7.0751   7.0857   7.0857   7.1450   7.1450   7.2273
     7.2323   7.2323   7.2326   7.2411   7.2412   7.2525   7.2526   7.2526
     7.2876   7.2877   7.2941   7.2942   7.3033   7.3168   7.3168   7.3375
     7.3375   7.3445   7.3445   7.3578   7.3873   7.4009   7.4034   7.4034
     7.4093   7.4100   7.4101   7.4267   7.4267   7.4505   7.4505   7.4527
     7.4527   7.4651   7.4651   7.4668   7.4668   7.4850   7.4871   7.4871
     7.5100   7.5101   7.5152   7.5345   7.5345   7.5590   7.5808   7.5808
     7.5839   7.5839   7.5840   7.6373   7.6419   7.6420   7.6420   7.6420
     7.6585   7.6586   7.6993   7.6993   7.7013   7.7013   7.7165   7.7468
     7.7469   7.7487   7.7704   7.7704   7.7834   7.7844   7.7844   7.7906
     7.7907   7.8281   7.8282   7.8473   7.8734   7.8783   7.8783   7.8796
     7.8866   7.8866   7.9100   7.9338   7.9385   7.9385   7.9412   7.9413
     7.9522   7.9522   7.9707   7.9708   7.9722   7.9723   7.9731   7.9731
     7.9915   7.9915   8.0447   8.0554   8.0639   8.0680   8.0840   8.0840
    12.4920  12.6428  12.6694  12.6694  12.6975  12.7169  12.7169  12.7270
    12.7552  12.7552  12.7801  12.7802  12.7920  12.8350  12.8350  12.8407
    12.8407  12.8459  12.8459  12.8503  12.8503  12.8782  12.8782  12.8858
    12.8858  12.9014  12.9220  12.9443  12.9443  12.9775  12.9776  12.9776
    12.9817  12.9923  12.9924  13.0234  13.0234  13.0269  13.0269  13.0456
    13.0456  13.0750  13.0750  13.0820  13.1312  13.1361  13.1964  13.2034
    13.2035  13.2633  13.2634  13.2662  13.2663  13.2701  13.2804  13.2805
    13.2841  13.2843  13.2887  13.3012  13.3012  13.3212  13.3215  13.3309
    13.3310  13.3341  13.3384  13.3388  13.3447  13.3450  13.3469  13.3539
    13.3541  13.3617  13.3688  13.3702  13.3756  13.3758  13.3760  13.3764
    13.3779  13.3789  13.3803  13.3805  13.3808  13.3811  13.3828  13.3860
    13.3874  13.3932  13.3963  13.3999  13.4014  13.4044  13.4107  13.4110
    13.4111  13.4112  13.4258  13.4267  13.4315  13.4316  13.4468  13.4473
    13.4527  13.4534  13.4564  13.4585  13.4631  13.4644  13.4696  13.4707
    13.4739  13.4746  13.4756  13.4773  13.4894  13.5033  13.5044  13.5051

     the Fermi energy is    10.3245 ev

!    total energy              =   -7311.19483361 Ry
     estimated scf accuracy    <       0.00000035 Ry
     smearing contrib. (-TS)   =       0.00000000 Ry
     internal energy E=F+TS    =   -7311.19483361 Ry

     The total energy is F=E-TS. E is the sum of the following terms:
     one-electron contribution =   -1518.06050277 Ry
     hartree contribution      =    1393.63649836 Ry
     xc contribution           =   -1727.92049429 Ry
     ewald contribution        =   -5458.85033492 Ry

     total magnetization       =     0.00 Bohr mag/cell
     absolute magnetization    =     0.01 Bohr mag/cell

     convergence has been achieved in  13 iterations

     Forces acting on atoms (cartesian axes, Ry/au):

     atom    1 type  3   force =    -0.00000125   -0.00000324   -0.00000423
     atom    2 type  3   force =     0.00000022   -0.00000222    0.00000566
     atom    3 type  3   force =     0.00000251    0.00000253   -0.00000612
     atom    4 type  3   force =    -0.00000116    0.00000064    0.00000461
     atom    5 type  3   force =     0.00000125    0.00000324    0.00000423
     atom    6 type  3   force =    -0.00000022    0.00000222   -0.00000566
     atom    7 type  3   force =    -0.00000251   -0.00000253    0.00000612
     atom    8 type  3   force =     0.00000116   -0.00000064   -0.00000461
     atom    9 type  3   force =    -0.00000510    0.00877333    0.00000172
     atom   10 type  3   force =     0.00000561    0.00877337    0.00000077
     atom   11 type  3   force =     0.00877375    0.00000129   -0.00000577
     atom   12 type  3   force =    -0.00877375   -0.00000129    0.00000577
     atom   13 type  3   force =     0.00000510   -0.00877333   -0.00000172
     atom   14 type  3   force =    -0.00000561   -0.00877337   -0.00000077
     atom   15 type  3   force =    -0.00000133   -0.00877483   -0.00000310
     atom   16 type  3   force =     0.00000505   -0.00877467   -0.00000154
     atom   17 type  3   force =     0.00876693    0.00000030    0.00000471
     atom   18 type  3   force =    -0.00876693   -0.00000030   -0.00000471
     atom   19 type  3   force =     0.00000133    0.00877483    0.00000310
     atom   20 type  3   force =    -0.00000505    0.00877467    0.00000154
     atom   21 type  3   force =     0.00877733   -0.00000144    0.00000419
     atom   22 type  3   force =    -0.00877733    0.00000144   -0.00000419
     atom   23 type  3   force =     0.00877408    0.00000034   -0.00000261
     atom   24 type  3   force =    -0.00877408   -0.00000034    0.00000261
     atom   25 type  4   force =    -0.00001052   -0.00000263   -0.00000632
     atom   26 type  4   force =     0.00000398   -0.00000315    0.00000880
     atom   27 type  4   force =     0.00000000    0.00000000    0.00000000
     atom   28 type  4   force =     0.00000000    0.00000000    0.00000000
     atom   29 type  4   force =     0.00001052    0.00000263    0.00000632
     atom   30 type  4   force =    -0.00000398    0.00000315   -0.00000880
     atom   31 type  4   force =    -0.00000521   -0.00000090    0.00000823
     atom   32 type  4   force =     0.00000829   -0.00000389   -0.00000557
     atom   33 type  4   force =     0.00000000    0.00000000    0.00000000
     atom   34 type  4   force =     0.00000000    0.00000000    0.00000000
     atom   35 type  4   force =     0.00000521    0.00000090   -0.00000823
     atom   36 type  4   force =    -0.00000829    0.00000389    0.00000557
     atom   37 type  4   force =     0.00000000    0.00000000    0.00000000
     atom   38 type  4   force =     0.00000000    0.00000000    0.00000000
     atom   39 type  4   force =     0.00000000    0.00000000    0.00000000
     atom   40 type  4   force =     0.00000000    0.00000000    0.00000000
     atom   41 type  1   force =     0.00000043   -0.00000003    0.00000039
     atom   42 type  1   force =    -0.00000028   -0.00000032   -0.00000112
     atom   43 type  1   force =     0.00000016    0.00000010   -0.00000171
     atom   44 type  1   force =    -0.00000030    0.00000006    0.00000065
     atom   45 type  1   force =    -0.00000043    0.00000003   -0.00000039
     atom   46 type  1   force =     0.00000028    0.00000032    0.00000112
     atom   47 type  1   force =    -0.00000016   -0.00000010    0.00000171
     atom   48 type  1   force =     0.00000030   -0.00000006   -0.00000065
     atom   49 type  1   force =     0.00298913    0.00298808   -0.00000116
     atom   50 type  1   force =    -0.00298892    0.00298743    0.00000096
     atom   51 type  1   force =     0.00298670    0.00298755   -0.00000126
     atom   52 type  1   force =    -0.00298650    0.00298843    0.00000077
     atom   53 type  1   force =    -0.00298913   -0.00298808    0.00000116
     atom   54 type  1   force =     0.00298892   -0.00298743   -0.00000096
     atom   55 type  1   force =    -0.00298670   -0.00298755    0.00000126
     atom   56 type  1   force =     0.00298650   -0.00298843   -0.00000077
     atom   57 type  1   force =     0.00298826   -0.00298772    0.00000126
     atom   58 type  1   force =    -0.00298898   -0.00298816   -0.00000015
     atom   59 type  1   force =     0.00298635   -0.00298821    0.00000098
     atom   60 type  1   force =    -0.00298745   -0.00298717   -0.00000091
     atom   61 type  1   force =    -0.00298826    0.00298772   -0.00000126
     atom   62 type  1   force =     0.00298898    0.00298816    0.00000015
     atom   63 type  1   force =    -0.00298635    0.00298821   -0.00000098
     atom   64 type  1   force =     0.00298745    0.00298717    0.00000091
     atom   65 type  1   force =     0.00030414    0.00246003   -0.00253933
     atom   66 type  1   force =    -0.00030491    0.00246038   -0.00253857
     atom   67 type  1   force =     0.00246118    0.00030580   -0.00253664
     atom   68 type  1   force =    -0.00246050    0.00030594   -0.00253955
     atom   69 type  1   force =    -0.00030414   -0.00246003    0.00253933
     atom   70 type  1   force =     0.00030491   -0.00246038    0.00253857
     atom   71 type  1   force =    -0.00246118   -0.00030580    0.00253664
     atom   72 type  1   force =     0.00246050   -0.00030594    0.00253955
     atom   73 type  1   force =     0.00030519   -0.00246235   -0.00253795
     atom   74 type  1   force =    -0.00030469   -0.00246262   -0.00253886
     atom   75 type  1   force =     0.00246040   -0.00030580   -0.00253914
     atom   76 type  1   force =    -0.00246089   -0.00030506   -0.00253697
     atom   77 type  1   force =    -0.00030519    0.00246235    0.00253795
     atom   78 type  1   force =     0.00030469    0.00246262    0.00253886
     atom   79 type  1   force =    -0.00246040    0.00030580    0.00253914
     atom   80 type  1   force =     0.00246089    0.00030506    0.00253697
     atom   81 type  1   force =     0.00030667    0.00246227   -0.00253888
     atom   82 type  1   force =    -0.00030588    0.00246227   -0.00253906
     atom   83 type  1   force =     0.00246115    0.00030639   -0.00253932
     atom   84 type  1   force =    -0.00246222    0.00030566   -0.00253734
     atom   85 type  1   force =    -0.00030667   -0.00246227    0.00253888
     atom   86 type  1   force =     0.00030588   -0.00246227    0.00253906
     atom   87 type  1   force =    -0.00246115   -0.00030639    0.00253932
     atom   88 type  1   force =     0.00246222   -0.00030566    0.00253734
     atom   89 type  1   force =     0.00030657   -0.00246096   -0.00253858
     atom   90 type  1   force =    -0.00030715   -0.00246058   -0.00253789
     atom   91 type  1   force =     0.00246187   -0.00030487   -0.00253722
     atom   92 type  1   force =    -0.00246156   -0.00030546   -0.00253890
     atom   93 type  1   force =    -0.00030657    0.00246096    0.00253858
     atom   94 type  1   force =     0.00030715    0.00246058    0.00253789
     atom   95 type  1   force =    -0.00246187    0.00030487    0.00253722
     atom   96 type  1   force =     0.00246156    0.00030546    0.00253890
     atom   97 type  2   force =    -0.00058955   -0.00577881   -0.01583616
     atom   98 type  2   force =     0.00059071   -0.00577890   -0.01583840
     atom   99 type  2   force =    -0.00578059   -0.00059187   -0.01583752
     atom  100 type  2   force =     0.00578084   -0.00059134   -0.01584081
     atom  101 type  2   force =     0.00058955    0.00577881    0.01583616
     atom  102 type  2   force =    -0.00059071    0.00577890    0.01583840
     atom  103 type  2   force =     0.00578059    0.00059187    0.01583752
     atom  104 type  2   force =    -0.00578084    0.00059134    0.01584081
     atom  105 type  2   force =    -0.00059022    0.00578016   -0.01583669
     atom  106 type  2   force =     0.00059102    0.00578159   -0.01583463
     atom  107 type  2   force =    -0.00578025    0.00059373   -0.01583939
     atom  108 type  2   force =     0.00578047    0.00059372   -0.01583628
     atom  109 type  2   force =     0.00059022   -0.00578016    0.01583669
     atom  110 type  2   force =    -0.00059102   -0.00578159    0.01583463
     atom  111 type  2   force =     0.00578025   -0.00059373    0.01583939
     atom  112 type  2   force =    -0.00578047   -0.00059372    0.01583628
     atom  113 type  2   force =    -0.00059418   -0.00578056   -0.01583857
     atom  114 type  2   force =     0.00059257   -0.00578177   -0.01583586
     atom  115 type  2   force =    -0.00577947   -0.00059283   -0.01583942
     atom  116 type  2   force =     0.00578057   -0.00059130   -0.01583582
     atom  117 type  2   force =     0.00059418    0.00578056    0.01583857
     atom  118 type  2   force =    -0.00059257    0.00578177    0.01583586
     atom  119 type  2   force =     0.00577947    0.00059283    0.01583942
     atom  120 type  2   force =    -0.00578057    0.00059130    0.01583582
     atom  121 type  2   force =    -0.00059352    0.00578080   -0.01583420
     atom  122 type  2   force =     0.00059426    0.00577817   -0.01583944
     atom  123 type  2   force =    -0.00578156    0.00059034   -0.01583849
     atom  124 type  2   force =     0.00577976    0.00059180   -0.01583945
     atom  125 type  2   force =     0.00059352   -0.00578080    0.01583420
     atom  126 type  2   force =    -0.00059426   -0.00577817    0.01583944
     atom  127 type  2   force =     0.00578156   -0.00059034    0.01583849
     atom  128 type  2   force =    -0.00577976   -0.00059180    0.01583945
     atom  129 type  2   force =     0.00033412    0.00313756   -0.00384319
     atom  130 type  2   force =    -0.00033387    0.00313985   -0.00384087
     atom  131 type  2   force =     0.00313999    0.00033039   -0.00384173
     atom  132 type  2   force =    -0.00313881    0.00033157   -0.00384387
     atom  133 type  2   force =    -0.00033412   -0.00313756    0.00384319
     atom  134 type  2   force =     0.00033387   -0.00313985    0.00384087
     atom  135 type  2   force =    -0.00313999   -0.00033039    0.00384173
     atom  136 type  2   force =     0.00313881   -0.00033157    0.00384387
     atom  137 type  2   force =     0.00033509   -0.00313749   -0.00384231
     atom  138 type  2   force =    -0.00033421   -0.00313762   -0.00384403
     atom  139 type  2   force =     0.00313944   -0.00033300   -0.00384283
     atom  140 type  2   force =    -0.00313899   -0.00033396   -0.00384127
     atom  141 type  2   force =    -0.00033509    0.00313749    0.00384231
     atom  142 type  2   force =     0.00033421    0.00313762    0.00384403
     atom  143 type  2   force =    -0.00313944    0.00033300    0.00384283
     atom  144 type  2   force =     0.00313899    0.00033396    0.00384127
     atom  145 type  2   force =     0.00033278    0.00313548   -0.00383988
     atom  146 type  2   force =    -0.00033043    0.00313571   -0.00384429
     atom  147 type  2   force =     0.00313798    0.00033383   -0.00384291
     atom  148 type  2   force =    -0.00313737    0.00033394   -0.00384292
     atom  149 type  2   force =    -0.00033278   -0.00313548    0.00383988
     atom  150 type  2   force =     0.00033043   -0.00313571    0.00384429
     atom  151 type  2   force =    -0.00313798   -0.00033383    0.00384291
     atom  152 type  2   force =     0.00313737   -0.00033394    0.00384292
     atom  153 type  2   force =     0.00033067   -0.00313887   -0.00384361
     atom  154 type  2   force =    -0.00033056   -0.00313781   -0.00383975
     atom  155 type  2   force =     0.00313816   -0.00033185   -0.00384164
     atom  156 type  2   force =    -0.00313717   -0.00033044   -0.00384298
     atom  157 type  2   force =    -0.00033067    0.00313887    0.00384361
     atom  158 type  2   force =     0.00033056    0.00313781    0.00383975
     atom  159 type  2   force =    -0.00313816    0.00033185    0.00384164
     atom  160 type  2   force =     0.00313717    0.00033044    0.00384298
     atom  161 type  2   force =     0.00123641    0.00990810    0.00054660
     atom  162 type  2   force =    -0.00123704    0.00990799    0.00054978
     atom  163 type  2   force =     0.00991129    0.00123447    0.00055021
     atom  164 type  2   force =    -0.00991072    0.00123309    0.00054820
     atom  165 type  2   force =    -0.00123641   -0.00990810   -0.00054660
     atom  166 type  2   force =     0.00123704   -0.00990799   -0.00054978
     atom  167 type  2   force =    -0.00991129   -0.00123447   -0.00055021
     atom  168 type  2   force =     0.00991072   -0.00123309   -0.00054820
     atom  169 type  2   force =     0.00123610   -0.00990600    0.00055155
     atom  170 type  2   force =    -0.00123660   -0.00990669    0.00054930
     atom  171 type  2   force =     0.00991114   -0.00123331    0.00054982
     atom  172 type  2   force =    -0.00990845   -0.00123350    0.00055068
     atom  173 type  2   force =    -0.00123610    0.00990600   -0.00055155
     atom  174 type  2   force =     0.00123660    0.00990669   -0.00054930
     atom  175 type  2   force =    -0.00991114    0.00123331   -0.00054982
     atom  176 type  2   force =     0.00990845    0.00123350   -0.00055068
     atom  177 type  2   force =     0.00123155    0.00990410    0.00055178
     atom  178 type  2   force =    -0.00122958    0.00990763    0.00054650
     atom  179 type  2   force =     0.00990678    0.00123370    0.00054936
     atom  180 type  2   force =    -0.00990438    0.00123493    0.00055206
     atom  181 type  2   force =    -0.00123155   -0.00990410   -0.00055178
     atom  182 type  2   force =     0.00122958   -0.00990763   -0.00054650
     atom  183 type  2   force =    -0.00990678   -0.00123370   -0.00054936
     atom  184 type  2   force =     0.00990438   -0.00123493   -0.00055206
     atom  185 type  2   force =     0.00122996   -0.00990813    0.00054712
     atom  186 type  2   force =    -0.00123151   -0.00990867    0.00055220
     atom  187 type  2   force =     0.00990509   -0.00123187    0.00055109
     atom  188 type  2   force =    -0.00990677   -0.00123349    0.00054989
     atom  189 type  2   force =    -0.00122996    0.00990813   -0.00054712
     atom  190 type  2   force =     0.00123151    0.00990867   -0.00055220
     atom  191 type  2   force =    -0.00990509    0.00123187   -0.00055109
     atom  192 type  2   force =     0.00990677    0.00123349   -0.00054989

     Total force =     0.122547     Total SCF correction =     0.001709


     Computing stress (Cartesian axis) and pressure

          total   stress  (Ry/bohr**3)                   (kbar)     P=       16.38
   0.00011496  -0.00000000   0.00000000           16.91       -0.00        0.00
  -0.00000000   0.00011496  -0.00000000           -0.00       16.91       -0.00
   0.00000000  -0.00000000   0.00010413            0.00       -0.00       15.32


     Writing output data file /home/kartickr/QuantumEspresso_runs/CPU/LLZO/temp/LLZO.save/

     init_run     :    130.39s CPU    132.06s WALL (       1 calls)
     electrons    :   6283.66s CPU   6346.64s WALL (       1 calls)
     forces       :     52.32s CPU     52.81s WALL (       1 calls)
     stress       :   1146.57s CPU   1151.18s WALL (       1 calls)

     Called by init_run:
     wfcinit      :    111.66s CPU    112.96s WALL (       1 calls)
     potinit      :      6.28s CPU      6.43s WALL (       1 calls)
     hinit0       :     11.17s CPU     11.30s WALL (       1 calls)

     Called by electrons:
     c_bands      :   5722.61s CPU   5776.34s WALL (      13 calls)
     sum_band     :    528.49s CPU    536.21s WALL (      13 calls)
     v_of_rho     :     25.61s CPU     26.18s WALL (      14 calls)
     mix_rho      :      6.67s CPU      6.81s WALL (      13 calls)

     Called by c_bands:
     init_us_2    :     13.36s CPU     13.83s WALL (      58 calls)
     regterg      :   5655.90s CPU   5708.87s WALL (      39 calls)

     Called by *egterg:
     rdiaghg      :     78.22s CPU     80.26s WALL (     501 calls)
     h_psi        :   4084.76s CPU   4123.35s WALL (     503 calls)
     g_psi        :      4.26s CPU      4.35s WALL (     462 calls)

     Called by h_psi:
     h_psi:calbec :    690.40s CPU    693.56s WALL (     503 calls)
     vloc_psi     :   3203.70s CPU   3233.34s WALL (     503 calls)
     add_vuspsi   :    182.11s CPU    187.79s WALL (     503 calls)

     General routines
     calbec       :   1036.29s CPU   1040.15s WALL (     513 calls)
     fft          :     25.15s CPU     25.45s WALL (     239 calls)
     ffts         :      2.56s CPU      2.58s WALL (      26 calls)
     fftw         :   3419.38s CPU   3449.28s WALL (   94626 calls)

     Parallel routines
     fft_scatt_xy :    247.48s CPU    253.19s WALL (   94891 calls)
     fft_scatt_yz :   2568.52s CPU   2580.97s WALL (   94891 calls)

     PWSCF        :      2h 6m CPU      2h 8m WALL


   This run was terminated on:  14:24: 2   8Sep2021            

=------------------------------------------------------------------------------=
   JOB DONE.
=------------------------------------------------------------------------------=
