
     Program PWSCF v.6.7MaX starts on 27Aug2021 at  8:38:18 

     This program is part of the open-source Quantum ESPRESSO suite
     for quantum simulation of materials; please cite
         "P. Giannozzi et al., J. Phys.:Condens. Matter 21 395502 (2009);
         "P. Giannozzi et al., J. Phys.:Condens. Matter 29 465901 (2017);
          URL http://www.quantum-espresso.org", 
     in publications or presentations arising from this work. More details at
     http://www.quantum-espresso.org/quote

     Parallel version (MPI & OpenMP), running on      48 processor cores
     Number of MPI processes:                48
     Threads/MPI process:                     1

     MPI processes distributed on     1 nodes
     R & G space division:  proc/nbgrp/npool/nimage =      48
     Reading input from Al12Mg17_ecut200.scf.in

     Current dimensions of program PWSCF are:
     Max number of different atomic species (ntypx) = 10
     Max number of k-points (npk) =  40000
     Max angular momentum in pseudopotentials (lmaxx) =  3
     Message from routine read_pp_mesh:
     mesh size missing, using the one in header
     Message from routine read_pp_mesh:
     mesh size missing, using the one in header

     gamma-point specific algorithms are used

     Subspace diagonalization in iterative solution of the eigenvalue problem:
     one sub-group per band group will be used
     scalapack distributed-memory algorithm (size of sub-group:  6*  6 procs)

     Found symmetry operation: I + ( -0.5000 -0.5000 -0.5000)
     This is a supercell, fractional translations are disabled
     Message from routine setup:
     using ibrav=0 with symmetry is DISCOURAGED, use correct ibrav instead
 
     Parallelization info
     --------------------
     sticks:   dense  smooth     PW     G-vecs:    dense   smooth      PW
     Min         524     524    130                62780    62780    7842
     Max         526     526    132                62794    62794    7856
     Sum       25233   25233   6309              3013867  3013867  376845
 


     bravais-lattice index     =            0
     lattice parameter (alat)  =      19.9037  a.u.
     unit-cell volume          =    7884.9946 (a.u.)^3
     number of atoms/cell      =           58
     number of atomic types    =            2
     number of electrons       =       412.00
     number of Kohn-Sham states=          247
     kinetic-energy cutoff     =     200.0000  Ry
     charge density cutoff     =     800.0000  Ry
     scf convergence threshold =      1.0E-07
     mixing beta               =       0.7000
     number of iterations used =            8  plain     mixing
     Exchange-correlation= PBE
                           (   1   4   3   4   0   0   0)

     celldm(1)=  19.903699  celldm(2)=   0.000000  celldm(3)=   0.000000
     celldm(4)=   0.000000  celldm(5)=   0.000000  celldm(6)=   0.000000

     crystal axes: (cart. coord. in units of alat)
               a(1) = (   1.000000   0.000000   0.000000 )  
               a(2) = (   0.000000   1.000000   0.000000 )  
               a(3) = (   0.000000   0.000000   1.000000 )  

     reciprocal axes: (cart. coord. in units 2 pi/alat)
               b(1) = (  1.000000  0.000000  0.000000 )  
               b(2) = (  0.000000  1.000000  0.000000 )  
               b(3) = (  0.000000  0.000000  1.000000 )  


     PseudoPot. # 1 for Mg read from file:
     /home/kartickr/QuantumEspresso_runs/pseudo/Mg.upf
     MD5 check sum: 4c04d8c6e0476e83eaecaf72fa8acc4d
     Pseudo is Norm-conserving, Zval = 10.0
     Generated using ONCVPSP code by D. R. Hamann
     Using radial grid of 1510 points,  4 beta functions with: 
                l(1) =   0
                l(2) =   0
                l(3) =   1
                l(4) =   1

     PseudoPot. # 2 for Al read from file:
     /home/kartickr/QuantumEspresso_runs/pseudo/Al.upf
     MD5 check sum: a92309766db89a6b54a5f8790cc4d69e
     Pseudo is Norm-conserving + core correction, Zval =  3.0
     Generated using ONCVPSP code by D. R. Hamann
     Using radial grid of 1876 points,  6 beta functions with: 
                l(1) =   0
                l(2) =   0
                l(3) =   1
                l(4) =   1
                l(5) =   2
                l(6) =   2

     atomic species   valence    mass     pseudopotential
        Mg            10.00    24.30500     Mg( 1.00)
        Al             3.00    26.98150     Al( 1.00)

     24 Sym. Ops. (no inversion) found



   Cartesian axes

     site n.     atom                  positions (alat units)
         1           Mg  tau(   1) = (   0.0000000   0.0000000   0.0000000  )
         2           Mg  tau(   2) = (   0.6720990   0.3279000   0.3279000  )
         3           Mg  tau(   3) = (   0.3279000   0.6720990   0.3279000  )
         4           Mg  tau(   4) = (   0.3279000   0.3279000   0.6720990  )
         5           Mg  tau(   5) = (   0.1720990   0.1720990   0.1720990  )
         6           Mg  tau(   6) = (   0.1433450   0.8566550   0.5403470  )
         7           Mg  tau(   7) = (   0.9596530   0.3566550   0.3566550  )
         8           Mg  tau(   8) = (   0.1433450   0.5403470   0.8566550  )
         9           Mg  tau(   9) = (   0.8566550   0.1433450   0.5403470  )
        10           Mg  tau(  10) = (   0.5403470   0.1433450   0.8566550  )
        11           Mg  tau(  11) = (   0.3566550   0.9596530   0.3566550  )
        12           Mg  tau(  12) = (   0.3566550   0.3566550   0.9596530  )
        13           Mg  tau(  13) = (   0.5403470   0.8566550   0.1433450  )
        14           Mg  tau(  14) = (   0.8566550   0.5403470   0.1433450  )
        15           Mg  tau(  15) = (   0.1433450   0.1433450   0.4596530  )
        16           Mg  tau(  16) = (   0.4596530   0.1433450   0.1433450  )
        17           Mg  tau(  17) = (   0.1433450   0.4596530   0.1433450  )
        18           Mg  tau(  18) = (   0.5000000   0.5000000   0.5000000  )
        19           Mg  tau(  19) = (   0.1720990   0.8279010   0.8279010  )
        20           Mg  tau(  20) = (   0.8279010   0.1720990   0.8279010  )
        21           Mg  tau(  21) = (   0.8279010   0.8279010   0.1720990  )
        22           Mg  tau(  22) = (   0.6720990   0.6720990   0.6720990  )
        23           Mg  tau(  23) = (   0.6433450   0.3566550   0.0403470  )
        24           Mg  tau(  24) = (   0.4596530   0.8566550   0.8566550  )
        25           Mg  tau(  25) = (   0.6433450   0.0403470   0.3566550  )
        26           Mg  tau(  26) = (   0.3566550   0.6433450   0.0403470  )
        27           Mg  tau(  27) = (   0.0403470   0.6433450   0.3566550  )
        28           Mg  tau(  28) = (   0.8566550   0.4596530   0.8566550  )
        29           Mg  tau(  29) = (   0.8566550   0.8566550   0.4596530  )
        30           Mg  tau(  30) = (   0.0403470   0.3566550   0.6433450  )
        31           Mg  tau(  31) = (   0.3566550   0.0403470   0.6433450  )
        32           Mg  tau(  32) = (   0.6433450   0.6433450   0.9596530  )
        33           Mg  tau(  33) = (   0.9596530   0.6433450   0.6433450  )
        34           Mg  tau(  34) = (   0.6433450   0.9596530   0.6433450  )
        35           Al  tau(  35) = (   0.9093690   0.0906315   0.2758130  )
        36           Al  tau(  36) = (   0.7241860   0.0906315   0.0906315  )
        37           Al  tau(  37) = (   0.9093690   0.2758130   0.0906315  )
        38           Al  tau(  38) = (   0.0906315   0.9093690   0.2758130  )
        39           Al  tau(  39) = (   0.2758130   0.9093690   0.0906315  )
        40           Al  tau(  40) = (   0.0906315   0.7241860   0.0906315  )
        41           Al  tau(  41) = (   0.0906315   0.0906315   0.7241860  )
        42           Al  tau(  42) = (   0.2758130   0.0906315   0.9093690  )
        43           Al  tau(  43) = (   0.0906315   0.2758130   0.9093690  )
        44           Al  tau(  44) = (   0.4093690   0.4093690   0.2241870  )
        45           Al  tau(  45) = (   0.2241870   0.4093690   0.4093690  )
        46           Al  tau(  46) = (   0.4093690   0.2241870   0.4093690  )
        47           Al  tau(  47) = (   0.4093690   0.5906310   0.7758140  )
        48           Al  tau(  48) = (   0.2241870   0.5906310   0.5906310  )
        49           Al  tau(  49) = (   0.4093690   0.7758140   0.5906310  )
        50           Al  tau(  50) = (   0.5906310   0.4093690   0.7758140  )
        51           Al  tau(  51) = (   0.7758140   0.4093690   0.5906310  )
        52           Al  tau(  52) = (   0.5906310   0.2241870   0.5906310  )
        53           Al  tau(  53) = (   0.5906310   0.5906310   0.2241870  )
        54           Al  tau(  54) = (   0.7758140   0.5906310   0.4093690  )
        55           Al  tau(  55) = (   0.5906310   0.7758140   0.4093690  )
        56           Al  tau(  56) = (   0.9093690   0.9093690   0.7241860  )
        57           Al  tau(  57) = (   0.7241860   0.9093690   0.9093690  )
        58           Al  tau(  58) = (   0.9093690   0.7241860   0.9093690  )

     number of k points=     1  Fermi-Dirac smearing, width (Ry)=  0.0032
                       cart. coord. in units 2pi/alat
        k(    1) = (   0.0000000   0.0000000   0.0000000), wk =   2.0000000

     Dense  grid:  1506934 G-vectors     FFT dimensions: ( 180, 180, 180)

     Estimated max dynamical RAM per process >     145.00 MB

     Estimated total dynamical RAM >       6.80 GB

     Initial potential from superposition of free atoms

     starting charge  411.91406, renormalised to  412.00000
     Starting wfcs are  266 randomized atomic wfcs

     total cpu time spent up to now is        3.2 secs

     Self-consistent Calculation

     iteration #  1     ecut=   200.00 Ry     beta= 0.70
     Davidson diagonalization with overlap
     ethr =  1.00E-02,  avg # of iterations =  6.0

     Threshold (ethr) on eigenvalues was too large:
     Diagonalizing with lowered threshold

     Davidson diagonalization with overlap
     ethr =  2.86E-04,  avg # of iterations =  5.0

     total cpu time spent up to now is       16.7 secs

     total energy              =   -4149.93246593 Ry
     estimated scf accuracy    <       1.05631530 Ry

     iteration #  2     ecut=   200.00 Ry     beta= 0.70
     Davidson diagonalization with overlap
     ethr =  2.56E-04,  avg # of iterations =  8.0

     total cpu time spent up to now is       23.8 secs

     total energy              =   -4149.90232844 Ry
     estimated scf accuracy    <       1.43019660 Ry

     iteration #  3     ecut=   200.00 Ry     beta= 0.70
     Davidson diagonalization with overlap
     ethr =  2.56E-04,  avg # of iterations =  3.0

     total cpu time spent up to now is       29.9 secs

     total energy              =   -4150.12188519 Ry
     estimated scf accuracy    <       0.90676081 Ry

     iteration #  4     ecut=   200.00 Ry     beta= 0.70
     Davidson diagonalization with overlap
     ethr =  2.20E-04,  avg # of iterations =  2.0

     total cpu time spent up to now is       35.5 secs

     total energy              =   -4150.27124553 Ry
     estimated scf accuracy    <       0.02408401 Ry

     iteration #  5     ecut=   200.00 Ry     beta= 0.70
     Davidson diagonalization with overlap
     ethr =  5.85E-06,  avg # of iterations = 14.0

     total cpu time spent up to now is       43.3 secs

     total energy              =   -4150.26887419 Ry
     estimated scf accuracy    <       0.05944795 Ry

     iteration #  6     ecut=   200.00 Ry     beta= 0.70
     Davidson diagonalization with overlap
     ethr =  5.85E-06,  avg # of iterations =  4.0

     total cpu time spent up to now is       49.2 secs

     total energy              =   -4150.27389600 Ry
     estimated scf accuracy    <       0.00714295 Ry

     iteration #  7     ecut=   200.00 Ry     beta= 0.70
     Davidson diagonalization with overlap
     ethr =  1.73E-06,  avg # of iterations =  2.0

     total cpu time spent up to now is       54.7 secs

     total energy              =   -4150.27418177 Ry
     estimated scf accuracy    <       0.00202063 Ry

     iteration #  8     ecut=   200.00 Ry     beta= 0.70
     Davidson diagonalization with overlap
     ethr =  4.90E-07,  avg # of iterations =  2.0

     total cpu time spent up to now is       60.3 secs

     total energy              =   -4150.27431076 Ry
     estimated scf accuracy    <       0.00197208 Ry

     iteration #  9     ecut=   200.00 Ry     beta= 0.70
     Davidson diagonalization with overlap
     ethr =  4.79E-07,  avg # of iterations =  2.0

     total cpu time spent up to now is       65.6 secs

     total energy              =   -4150.27446137 Ry
     estimated scf accuracy    <       0.00015373 Ry

     iteration # 10     ecut=   200.00 Ry     beta= 0.70
     Davidson diagonalization with overlap
     ethr =  3.73E-08,  avg # of iterations =  3.0

     total cpu time spent up to now is       71.4 secs

     total energy              =   -4150.27448874 Ry
     estimated scf accuracy    <       0.00001609 Ry

     iteration # 11     ecut=   200.00 Ry     beta= 0.70
     Davidson diagonalization with overlap
     ethr =  3.90E-09,  avg # of iterations =  4.0

     total cpu time spent up to now is       77.5 secs

     total energy              =   -4150.27448761 Ry
     estimated scf accuracy    <       0.00002393 Ry

     iteration # 12     ecut=   200.00 Ry     beta= 0.70
     Davidson diagonalization with overlap
     ethr =  3.90E-09,  avg # of iterations =  2.0

     total cpu time spent up to now is       83.0 secs

     total energy              =   -4150.27449050 Ry
     estimated scf accuracy    <       0.00001138 Ry

     iteration # 13     ecut=   200.00 Ry     beta= 0.70
     Davidson diagonalization with overlap
     ethr =  2.76E-09,  avg # of iterations =  2.0

     total cpu time spent up to now is       88.4 secs

     total energy              =   -4150.27449118 Ry
     estimated scf accuracy    <       0.00000169 Ry

     iteration # 14     ecut=   200.00 Ry     beta= 0.70
     Davidson diagonalization with overlap
     ethr =  4.11E-10,  avg # of iterations =  2.0

     total cpu time spent up to now is       94.2 secs

     total energy              =   -4150.27449136 Ry
     estimated scf accuracy    <       0.00000077 Ry

     iteration # 15     ecut=   200.00 Ry     beta= 0.70
     Davidson diagonalization with overlap
     ethr =  1.87E-10,  avg # of iterations =  2.0

     total cpu time spent up to now is       99.7 secs

     total energy              =   -4150.27449144 Ry
     estimated scf accuracy    <       0.00000040 Ry

     iteration # 16     ecut=   200.00 Ry     beta= 0.70
     Davidson diagonalization with overlap
     ethr =  9.68E-11,  avg # of iterations =  2.0

     total cpu time spent up to now is      105.1 secs

     End of self-consistent calculation

          k = 0.0000 0.0000 0.0000 (188423 PWs)   bands (ev):

   -70.3186 -70.3185 -69.9277 -69.9276 -69.9276 -69.9276 -69.9276 -69.9276
   -69.9275 -69.9275 -69.4375 -69.4370 -69.4369 -69.4364 -69.4364 -69.4364
   -69.4363 -69.4363 -69.4363 -69.4359 -69.4358 -69.4353 -69.4353 -69.4353
   -69.4353 -69.4352 -69.4352 -69.4352 -69.4352 -69.4352 -69.4352 -69.4352
   -69.4351 -69.4351 -37.0808 -37.0808 -37.0808 -37.0807 -37.0807 -37.0807
   -36.7161 -36.7161 -36.7160 -36.7160 -36.7160 -36.7160 -36.7159 -36.7159
   -36.6855 -36.6855 -36.6855 -36.6855 -36.6855 -36.6855 -36.6854 -36.6854
   -36.6854 -36.6854 -36.6854 -36.6854 -36.6854 -36.6854 -36.6853 -36.6853
   -36.2317 -36.2287 -36.2287 -36.2275 -36.2275 -36.2275 -36.2272 -36.2265
   -36.2264 -36.2264 -36.2264 -36.2264 -36.2264 -36.2252 -36.2252 -36.2240
   -36.2238 -36.2238 -36.2238 -36.2235 -36.2234 -36.2234 -36.2226 -36.2226
   -36.2224 -36.2224 -36.2224 -36.2215 -36.2214 -36.2214 -36.2172 -36.2172
   -36.2172 -36.2136 -36.2126 -36.2126 -36.2126 -36.2120 -36.2119 -36.2119
   -36.2118 -36.2100 -36.2099 -36.2099 -36.2089 -36.2089 -36.2089 -36.2077
   -36.2077 -36.2071 -36.2056 -36.2056 -36.2056 -36.2050 -36.2050 -36.2049
   -36.2046 -36.2046 -36.2046 -36.2046 -36.2026 -36.2026 -36.2026 -36.2022
   -36.2022 -36.2022 -36.2021 -36.2021 -36.2021 -36.2007 -36.2007 -36.2006
    -2.4680  -1.7991  -1.2700  -1.2700  -1.2699  -0.8014  -0.8014  -0.8013
    -0.6127  -0.6126   0.3229   0.3229   0.6261   0.6261   0.6261   0.7751
     0.9989   0.9989   0.9990   1.2603   1.2604   1.2604   1.8630   1.8630
     1.8631   2.1152   2.3643   3.0019   3.0019   3.0019   3.0456   3.0456
     3.2922   3.3600   3.3600   3.3601   3.6338   3.6339   3.7928   3.7928
     3.7928   4.2444   4.2444   4.2444   4.4954   4.4954   4.4955   4.6261
     4.6261   4.7797   4.7797   4.7798   5.0315   5.3009   5.3009   5.3009
     5.3299   5.3299   5.3299   5.3557   5.3818   5.3818   5.3818   5.5547
     5.5547   5.5547   5.6041   5.6041   5.6158   5.6159   5.6159   5.7829
     5.7829   5.7829   5.8395   6.1136   6.2227   6.2227   6.9865   6.9865
     6.9865   7.7266   7.7266   8.1106   8.2095   8.2095   8.2095   8.2230
     8.2230   8.2230   8.7995   8.7995   8.7996   8.8644   8.8644   8.9353
     8.9353   8.9353   9.0970   9.0970   9.0970   9.2835   9.2835   9.2836
     9.3343   9.3343   9.3343   9.3683   9.3987   9.3987   9.5695

     the Fermi energy is     5.6699 ev

!    total energy              =   -4150.27449145 Ry
     estimated scf accuracy    <       0.00000005 Ry
     smearing contrib. (-TS)   =      -0.02616623 Ry
     internal energy E=F+TS    =   -4150.24832522 Ry

     The total energy is F=E-TS. E is the sum of the following terms:
     one-electron contribution =   -3351.21103084 Ry
     hartree contribution      =    1619.31257375 Ry
     xc contribution           =    -590.14246573 Ry
     ewald contribution        =   -1828.20740240 Ry

     convergence has been achieved in  16 iterations

     Forces acting on atoms (cartesian axes, Ry/au):

     atom    1 type  1   force =     0.00000000    0.00000000    0.00000000
     atom    2 type  1   force =     0.00354953   -0.00354953   -0.00354953
     atom    3 type  1   force =    -0.00354953    0.00354953   -0.00354953
     atom    4 type  1   force =    -0.00354953   -0.00354953    0.00354953
     atom    5 type  1   force =     0.00355211    0.00355211    0.00355211
     atom    6 type  1   force =    -0.00008214    0.00008214   -0.00110995
     atom    7 type  1   force =     0.00111075    0.00008338    0.00008338
     atom    8 type  1   force =    -0.00008214   -0.00110995    0.00008214
     atom    9 type  1   force =     0.00008214   -0.00008214   -0.00110995
     atom   10 type  1   force =    -0.00110995   -0.00008214    0.00008214
     atom   11 type  1   force =     0.00008338    0.00111075    0.00008338
     atom   12 type  1   force =     0.00008338    0.00008338    0.00111075
     atom   13 type  1   force =    -0.00110995    0.00008214   -0.00008214
     atom   14 type  1   force =     0.00008214   -0.00110995   -0.00008214
     atom   15 type  1   force =    -0.00008214   -0.00008214    0.00110995
     atom   16 type  1   force =     0.00110995   -0.00008214   -0.00008214
     atom   17 type  1   force =    -0.00008214    0.00110995   -0.00008214
     atom   18 type  1   force =     0.00000000    0.00000000    0.00000000
     atom   19 type  1   force =     0.00355211   -0.00355211   -0.00355211
     atom   20 type  1   force =    -0.00355211    0.00355211   -0.00355211
     atom   21 type  1   force =    -0.00355211   -0.00355211    0.00355211
     atom   22 type  1   force =     0.00354953    0.00354953    0.00354953
     atom   23 type  1   force =    -0.00008338    0.00008338   -0.00111075
     atom   24 type  1   force =     0.00110995    0.00008214    0.00008214
     atom   25 type  1   force =    -0.00008338   -0.00111075    0.00008338
     atom   26 type  1   force =     0.00008338   -0.00008338   -0.00111075
     atom   27 type  1   force =    -0.00111075   -0.00008338    0.00008338
     atom   28 type  1   force =     0.00008214    0.00110995    0.00008214
     atom   29 type  1   force =     0.00008214    0.00008214    0.00110995
     atom   30 type  1   force =    -0.00111075    0.00008338   -0.00008338
     atom   31 type  1   force =     0.00008338   -0.00111075   -0.00008338
     atom   32 type  1   force =    -0.00008338   -0.00008338    0.00111075
     atom   33 type  1   force =     0.00111075   -0.00008338   -0.00008338
     atom   34 type  1   force =    -0.00008338    0.00111075   -0.00008338
     atom   35 type  2   force =    -0.00423257    0.00423257    0.01250074
     atom   36 type  2   force =    -0.01250074    0.00423257    0.00423257
     atom   37 type  2   force =    -0.00423257    0.01250074    0.00423257
     atom   38 type  2   force =     0.00423257   -0.00423257    0.01250074
     atom   39 type  2   force =     0.01250074   -0.00423257    0.00423257
     atom   40 type  2   force =     0.00423257   -0.01250074    0.00423257
     atom   41 type  2   force =     0.00423257    0.00423257   -0.01250074
     atom   42 type  2   force =     0.01250074    0.00423257   -0.00423257
     atom   43 type  2   force =     0.00423257    0.01250074   -0.00423257
     atom   44 type  2   force =    -0.00423404   -0.00423404   -0.01249899
     atom   45 type  2   force =    -0.01249899   -0.00423404   -0.00423404
     atom   46 type  2   force =    -0.00423404   -0.01249899   -0.00423404
     atom   47 type  2   force =    -0.00423404    0.00423404    0.01249899
     atom   48 type  2   force =    -0.01249899    0.00423404    0.00423404
     atom   49 type  2   force =    -0.00423404    0.01249899    0.00423404
     atom   50 type  2   force =     0.00423404   -0.00423404    0.01249899
     atom   51 type  2   force =     0.01249899   -0.00423404    0.00423404
     atom   52 type  2   force =     0.00423404   -0.01249899    0.00423404
     atom   53 type  2   force =     0.00423404    0.00423404   -0.01249899
     atom   54 type  2   force =     0.01249899    0.00423404   -0.00423404
     atom   55 type  2   force =     0.00423404    0.01249899   -0.00423404
     atom   56 type  2   force =    -0.00423257   -0.00423257   -0.01250074
     atom   57 type  2   force =    -0.01250074   -0.00423257   -0.00423257
     atom   58 type  2   force =    -0.00423257   -0.01250074   -0.00423257

     Total force =     0.070304     Total SCF correction =     0.000954


     Computing stress (Cartesian axis) and pressure

          total   stress  (Ry/bohr**3)                   (kbar)     P=       -0.26
  -0.00000180   0.00000000   0.00000000           -0.26        0.00        0.00
   0.00000000  -0.00000180   0.00000000            0.00       -0.26        0.00
   0.00000000   0.00000000  -0.00000180            0.00        0.00       -0.26


     Writing output data file /home/kartickr/QuantumEspresso_runs/CPU/Al12Mg17/temp/Al12Mg17_200ecut.save/
 
     init_run     :      2.91s CPU      3.12s WALL (       1 calls)
     electrons    :     98.45s CPU    102.29s WALL (       1 calls)
     forces       :      0.95s CPU      0.99s WALL (       1 calls)
     stress       :     13.21s CPU     13.36s WALL (       1 calls)

     Called by init_run:
     wfcinit      :      1.97s CPU      2.11s WALL (       1 calls)
     potinit      :      0.22s CPU      0.27s WALL (       1 calls)
     hinit0       :      0.15s CPU      0.17s WALL (       1 calls)

     Called by electrons:
     c_bands      :     80.26s CPU     83.03s WALL (      17 calls)
     sum_band     :     15.07s CPU     15.57s WALL (      17 calls)
     v_of_rho     :      2.58s CPU      2.74s WALL (      17 calls)
     mix_rho      :      0.56s CPU      0.59s WALL (      17 calls)

     Called by c_bands:
     init_us_2    :      1.08s CPU      1.10s WALL (      35 calls)
     regterg      :     77.61s CPU     80.37s WALL (      17 calls)

     Called by *egterg:
     rdiaghg      :      1.53s CPU      1.57s WALL (      81 calls)
     h_psi        :     62.71s CPU     65.32s WALL (      83 calls)
     g_psi        :      0.21s CPU      0.22s WALL (      65 calls)

     Called by h_psi:
     h_psi:calbec :      5.10s CPU      5.16s WALL (      83 calls)
     vloc_psi     :     53.58s CPU     56.10s WALL (      83 calls)
     add_vuspsi   :      3.48s CPU      3.49s WALL (      83 calls)

     General routines
     calbec       :      5.49s CPU      5.57s WALL (      88 calls)
     fft          :      1.92s CPU      2.11s WALL (     156 calls)
     ffts         :      0.20s CPU      0.22s WALL (      17 calls)
     fftw         :     55.98s CPU     58.87s WALL (   11980 calls)
 
     Parallel routines
     fft_scatt_xy :      8.82s CPU      8.90s WALL (   12153 calls)
     fft_scatt_yz :     24.81s CPU     27.68s WALL (   12153 calls)
 
     PWSCF        :   1m56.03s CPU   2m 6.85s WALL

 
   This run was terminated on:   8:40:25  27Aug2021            

=------------------------------------------------------------------------------=
   JOB DONE.
=------------------------------------------------------------------------------=
