
     Program PWSCF v.7.4.1 starts on  6Jun2025 at 14:33:28 

     This program is part of the open-source Quantum ESPRESSO suite
     for quantum simulation of materials; please cite
         "P. Giannozzi et al., J. Phys.:Condens. Matter 21 395502 (2009);
         "P. Giannozzi et al., J. Phys.:Condens. Matter 29 465901 (2017);
         "P. Giannozzi et al., J. Chem. Phys. 152 154105 (2020);
          URL http://www.quantum-espresso.org", 
     in publications or presentations arising from this work. More details at
     http://www.quantum-espresso.org/quote

     Parallel version (MPI), running on     8 processors

     MPI processes distributed on     1 nodes
     564428 MiB available memory on the printing compute node when the environment starts
 
     Reading input from Li2O.ionRelax.in

     Current dimensions of program PWSCF are:
     Max number of different atomic species (ntypx) = 10
     Max number of k-points (npk) =  40000
     Max angular momentum in pseudopotentials (lmaxx) =  4

     IMPORTANT: XC functional enforced from input :
     Exchange-correlation= R2SCAN
                           (   0   0   0   0   0 497 498)
     Any further DFT definition will be discarded
     Please, verify this is what you really want

 
     K-points division:     npool     =       2
     R & G space division:  proc/nbgrp/npool/nimage =       4
     Subspace diagonalization in iterative solution of the eigenvalue problem:
     a serial algorithm will be used

 
     Parallelization info
     --------------------
     sticks:   dense  smooth     PW     G-vecs:    dense   smooth      PW
     Min        2416    2416    622               178594   178594   23345
     Max        2417    2417    625               178597   178597   23346
     Sum        9665    9665   2493               714383   714383   93381
 
     Using Slab Decomposition
 


     bravais-lattice index     =            0
     lattice parameter (alat)  =      17.4233  a.u.
     unit-cell volume          =    5289.1863 (a.u.)^3
     number of atoms/cell      =           95
     number of atomic types    =            2
     number of electrons       =       378.00
     number of Kohn-Sham states=          227
     kinetic-energy cutoff     =     100.0000  Ry
     charge density cutoff     =     400.0000  Ry
     scf convergence threshold =      1.0E-10
     mixing beta               =       0.5000
     number of iterations used =            8  plain     mixing
     energy convergence thresh.=      1.0E-04
     force convergence thresh. =      1.0E-04
     Exchange-correlation= R2SCAN
                           (   0   0   0   0   0 497 498)
     nstep                     =           50


     GPU acceleration is ACTIVE.  1 visible GPUs per MPI rank

     Message from routine print_cuda_info:
     High GPU oversubscription detected. Are you sure this is what you want?

     celldm(1)=  17.423268  celldm(2)=   0.000000  celldm(3)=   0.000000
     celldm(4)=   0.000000  celldm(5)=   0.000000  celldm(6)=   0.000000

     crystal axes: (cart. coord. in units of alat)
               a(1) = (   1.000000   0.000000   0.000000 )  
               a(2) = (   0.000000   1.000000   0.000000 )  
               a(3) = (   0.000000   0.000000   1.000000 )  

     reciprocal axes: (cart. coord. in units 2 pi/alat)
               b(1) = (  1.000000  0.000000  0.000000 )  
               b(2) = (  0.000000  1.000000  0.000000 )  
               b(3) = (  0.000000  0.000000  1.000000 )  


     PseudoPot. # 1 for O  read from file:
     ./O_ONCV_PBE-1.2.upf
     MD5 check sum: e36c48deb68f4e355fffe4602be2c42c
     Pseudo is Norm-conserving, Zval =  6.0
     Generated using ONCVPSP code by D. R. Hamann
     Using radial grid of  602 points,  4 beta functions with: 
                l(1) =   0
                l(2) =   0
                l(3) =   1
                l(4) =   1

     PseudoPot. # 2 for Li read from file:
     ./Li_ONCV_PBE-1.2.upf
     MD5 check sum: c91dd4cee9943b136ac3b62641658f95
     Pseudo is Norm-conserving, Zval =  3.0
     Generated using ONCVPSP code by D. R. Hamann
     Using radial grid of  602 points,  4 beta functions with: 
                l(1) =   0
                l(2) =   0
                l(3) =   1
                l(4) =   1

     atomic species   valence    mass     pseudopotential
     O                 6.00    15.99990     O ( 1.00)
     Li                3.00     6.94100     Li( 1.00)

     No symmetry found



   Cartesian axes

     site n.     atom                  positions (alat units)
         1        O      tau(   1) = (   0.0000000   0.0000000   0.0000000  )
         2        O      tau(   2) = (   0.0000000   0.0000000   0.5000000  )
         3        O      tau(   3) = (   0.0000000   0.5000000   0.0000000  )
         4        O      tau(   4) = (   0.0000000   0.5000000   0.5000000  )
         5        O      tau(   5) = (   0.5000000   0.0000000   0.0000000  )
         6        O      tau(   6) = (   0.5000000   0.0000000   0.5000000  )
         7        O      tau(   7) = (   0.5000000   0.5000000   0.0000000  )
         8        O      tau(   8) = (   0.0000000   0.2500000   0.2500000  )
         9        O      tau(   9) = (   0.0000000   0.2500000   0.7500000  )
        10        O      tau(  10) = (   0.0000000   0.7500000   0.2500000  )
        11        O      tau(  11) = (   0.0000000   0.7500000   0.7500000  )
        12        O      tau(  12) = (   0.5000000   0.2500000   0.2500000  )
        13        O      tau(  13) = (   0.5000000   0.2500000   0.7500000  )
        14        O      tau(  14) = (   0.5000000   0.7500000   0.2500000  )
        15        O      tau(  15) = (   0.5000000   0.7500000   0.7500000  )
        16        O      tau(  16) = (   0.2500000   0.0000000   0.2500000  )
        17        O      tau(  17) = (   0.2500000   0.0000000   0.7500000  )
        18        O      tau(  18) = (   0.2500000   0.5000000   0.2500000  )
        19        O      tau(  19) = (   0.2500000   0.5000000   0.7500000  )
        20        O      tau(  20) = (   0.7500000   0.0000000   0.2500000  )
        21        O      tau(  21) = (   0.7500000   0.0000000   0.7500000  )
        22        O      tau(  22) = (   0.7500000   0.5000000   0.2500000  )
        23        O      tau(  23) = (   0.7500000   0.5000000   0.7500000  )
        24        O      tau(  24) = (   0.2500000   0.2500000   0.0000000  )
        25        O      tau(  25) = (   0.2500000   0.2500000   0.5000000  )
        26        O      tau(  26) = (   0.2500000   0.7500000   0.0000000  )
        27        O      tau(  27) = (   0.2500000   0.7500000   0.5000000  )
        28        O      tau(  28) = (   0.7500000   0.2500000   0.0000000  )
        29        O      tau(  29) = (   0.7500000   0.2500000   0.5000000  )
        30        O      tau(  30) = (   0.7500000   0.7500000   0.0000000  )
        31        O      tau(  31) = (   0.7500000   0.7500000   0.5000000  )
        32        Li     tau(  32) = (   0.1250000   0.1250000   0.3750000  )
        33        Li     tau(  33) = (   0.1250000   0.1250000   0.8750000  )
        34        Li     tau(  34) = (   0.1250000   0.6250000   0.3750000  )
        35        Li     tau(  35) = (   0.1250000   0.6250000   0.8750000  )
        36        Li     tau(  36) = (   0.6250000   0.1250000   0.3750000  )
        37        Li     tau(  37) = (   0.6250000   0.1250000   0.8750000  )
        38        Li     tau(  38) = (   0.6250000   0.6250000   0.3750000  )
        39        Li     tau(  39) = (   0.6250000   0.6250000   0.8750000  )
        40        Li     tau(  40) = (   0.1250000   0.3750000   0.1250000  )
        41        Li     tau(  41) = (   0.1250000   0.3750000   0.6250000  )
        42        Li     tau(  42) = (   0.1250000   0.8750000   0.1250000  )
        43        Li     tau(  43) = (   0.1250000   0.8750000   0.6250000  )
        44        Li     tau(  44) = (   0.6250000   0.3750000   0.1250000  )
        45        Li     tau(  45) = (   0.6250000   0.3750000   0.6250000  )
        46        Li     tau(  46) = (   0.6250000   0.8750000   0.1250000  )
        47        Li     tau(  47) = (   0.6250000   0.8750000   0.6250000  )
        48        Li     tau(  48) = (   0.3750000   0.1250000   0.1250000  )
        49        Li     tau(  49) = (   0.3750000   0.1250000   0.6250000  )
        50        Li     tau(  50) = (   0.3750000   0.6250000   0.1250000  )
        51        Li     tau(  51) = (   0.3750000   0.6250000   0.6250000  )
        52        Li     tau(  52) = (   0.8750000   0.1250000   0.1250000  )
        53        Li     tau(  53) = (   0.8750000   0.1250000   0.6250000  )
        54        Li     tau(  54) = (   0.8750000   0.6250000   0.1250000  )
        55        Li     tau(  55) = (   0.8750000   0.6250000   0.6250000  )
        56        Li     tau(  56) = (   0.3750000   0.3750000   0.3750000  )
        57        Li     tau(  57) = (   0.3750000   0.3750000   0.8750000  )
        58        Li     tau(  58) = (   0.3750000   0.8750000   0.3750000  )
        59        Li     tau(  59) = (   0.3750000   0.8750000   0.8750000  )
        60        Li     tau(  60) = (   0.8750000   0.3750000   0.3750000  )
        61        Li     tau(  61) = (   0.8750000   0.3750000   0.8750000  )
        62        Li     tau(  62) = (   0.8750000   0.8750000   0.3750000  )
        63        Li     tau(  63) = (   0.8750000   0.8750000   0.8750000  )
        64        Li     tau(  64) = (   0.3750000   0.3750000   0.1250000  )
        65        Li     tau(  65) = (   0.3750000   0.3750000   0.6250000  )
        66        Li     tau(  66) = (   0.3750000   0.8750000   0.1250000  )
        67        Li     tau(  67) = (   0.3750000   0.8750000   0.6250000  )
        68        Li     tau(  68) = (   0.8750000   0.3750000   0.1250000  )
        69        Li     tau(  69) = (   0.8750000   0.3750000   0.6250000  )
        70        Li     tau(  70) = (   0.8750000   0.8750000   0.1250000  )
        71        Li     tau(  71) = (   0.8750000   0.8750000   0.6250000  )
        72        Li     tau(  72) = (   0.3750000   0.1250000   0.3750000  )
        73        Li     tau(  73) = (   0.3750000   0.1250000   0.8750000  )
        74        Li     tau(  74) = (   0.3750000   0.6250000   0.3750000  )
        75        Li     tau(  75) = (   0.3750000   0.6250000   0.8750000  )
        76        Li     tau(  76) = (   0.8750000   0.1250000   0.3750000  )
        77        Li     tau(  77) = (   0.8750000   0.1250000   0.8750000  )
        78        Li     tau(  78) = (   0.8750000   0.6250000   0.3750000  )
        79        Li     tau(  79) = (   0.8750000   0.6250000   0.8750000  )
        80        Li     tau(  80) = (   0.1250000   0.3750000   0.3750000  )
        81        Li     tau(  81) = (   0.1250000   0.3750000   0.8750000  )
        82        Li     tau(  82) = (   0.1250000   0.8750000   0.3750000  )
        83        Li     tau(  83) = (   0.1250000   0.8750000   0.8750000  )
        84        Li     tau(  84) = (   0.6250000   0.3750000   0.3750000  )
        85        Li     tau(  85) = (   0.6250000   0.3750000   0.8750000  )
        86        Li     tau(  86) = (   0.6250000   0.8750000   0.3750000  )
        87        Li     tau(  87) = (   0.6250000   0.8750000   0.8750000  )
        88        Li     tau(  88) = (   0.1250000   0.1250000   0.1250000  )
        89        Li     tau(  89) = (   0.1250000   0.1250000   0.6250000  )
        90        Li     tau(  90) = (   0.1250000   0.6250000   0.1250000  )
        91        Li     tau(  91) = (   0.1250000   0.6250000   0.6250000  )
        92        Li     tau(  92) = (   0.6250000   0.1250000   0.1250000  )
        93        Li     tau(  93) = (   0.6250000   0.1250000   0.6250000  )
        94        Li     tau(  94) = (   0.6250000   0.6250000   0.1250000  )
        95        Li     tau(  95) = (   0.6250000   0.6250000   0.6250000  )

     number of k points=     4  Fermi-Dirac smearing, width (Ry)=  0.0032
                       cart. coord. in units 2pi/alat
        k(    1) = (   0.2500000   0.2500000   0.2500000), wk =   0.5000000
        k(    2) = (   0.2500000   0.2500000  -0.2500000), wk =   0.5000000
        k(    3) = (   0.2500000  -0.2500000   0.2500000), wk =   0.5000000
        k(    4) = (   0.2500000  -0.2500000  -0.2500000), wk =   0.5000000

     Dense  grid:   714383 G-vectors     FFT dimensions: ( 120, 120, 120)

     Estimated max dynamical RAM per process >     993.68 MB

     Estimated total dynamical RAM >       7.42 GB

     WARNING: libxc functional with ID  497 depends
      on external parameters: check the user_guide of
      QE if you need to modify them or to check their
      default values.

     WARNING: libxc functional with ID  498 depends
      on external parameters: check the user_guide of
      QE if you need to modify them or to check their
      default values.

     Initial potential from superposition of free atoms

     starting charge     370.7542, renormalised to     378.0000
     Starting wfcs are random

     total cpu time spent up to now is        6.0 secs

     Self-consistent Calculation

     iteration #  1     ecut=   100.00 Ry     beta= 0.50
     Davidson diagonalization with overlap
     ethr =  1.00E-02,  avg # of iterations =  9.8

     total cpu time spent up to now is       41.9 secs

     total energy              =   -1912.86108678 Ry
     estimated scf accuracy    <    1494.39448059 Ry

     iteration #  2     ecut=   100.00 Ry     beta= 0.50
     Davidson diagonalization with overlap
     ethr =  1.00E-02,  avg # of iterations =  1.0

     total cpu time spent up to now is       53.4 secs

     total energy              =   -1912.90486932 Ry
     estimated scf accuracy    <     329.09469735 Ry

     iteration #  3     ecut=   100.00 Ry     beta= 0.50
     Davidson diagonalization with overlap
     ethr =  1.00E-02,  avg # of iterations =  1.0

     total cpu time spent up to now is       64.8 secs

     total energy              =   -1913.09395553 Ry
     estimated scf accuracy    <       8.08780183 Ry

     iteration #  4     ecut=   100.00 Ry     beta= 0.50
     Davidson diagonalization with overlap
     ethr =  2.14E-03,  avg # of iterations =  1.0

     total cpu time spent up to now is       76.3 secs

     total energy              =   -1913.18710208 Ry
     estimated scf accuracy    <       0.06661942 Ry

     iteration #  5     ecut=   100.00 Ry     beta= 0.50
     Davidson diagonalization with overlap
     ethr =  1.76E-05,  avg # of iterations = 14.8

     total cpu time spent up to now is       91.6 secs

     total energy              =   -1913.19464432 Ry
     estimated scf accuracy    <       0.05916394 Ry

     iteration #  6     ecut=   100.00 Ry     beta= 0.50
     Davidson diagonalization with overlap
     ethr =  1.57E-05,  avg # of iterations =  1.0

     total cpu time spent up to now is      103.1 secs

     total energy              =   -1913.19446674 Ry
     estimated scf accuracy    <       0.01732244 Ry

     iteration #  7     ecut=   100.00 Ry     beta= 0.50
     Davidson diagonalization with overlap
     ethr =  4.58E-06,  avg # of iterations =  1.0

     total cpu time spent up to now is      114.6 secs

     total energy              =   -1913.19470955 Ry
     estimated scf accuracy    <       0.00021507 Ry

     iteration #  8     ecut=   100.00 Ry     beta= 0.50
     Davidson diagonalization with overlap
     ethr =  5.69E-08,  avg # of iterations =  2.0

     total cpu time spent up to now is      127.3 secs

     total energy              =   -1913.19472323 Ry
     estimated scf accuracy    <       0.00000974 Ry

     iteration #  9     ecut=   100.00 Ry     beta= 0.50
     Davidson diagonalization with overlap
     ethr =  2.58E-09,  avg # of iterations =  2.0

     total cpu time spent up to now is      139.3 secs

     total energy              =   -1913.19472371 Ry
     estimated scf accuracy    <       0.00000568 Ry

     iteration # 10     ecut=   100.00 Ry     beta= 0.50
     Davidson diagonalization with overlap
     ethr =  1.50E-09,  avg # of iterations =  1.0

     total cpu time spent up to now is      150.9 secs

     total energy              =   -1913.19472381 Ry
     estimated scf accuracy    <       0.00000083 Ry

     iteration # 11     ecut=   100.00 Ry     beta= 0.50
     Davidson diagonalization with overlap
     ethr =  2.20E-10,  avg # of iterations =  1.0

     total cpu time spent up to now is      162.4 secs

     total energy              =   -1913.19472374 Ry
     estimated scf accuracy    <       0.00000388 Ry

     iteration # 12     ecut=   100.00 Ry     beta= 0.50
     Davidson diagonalization with overlap
     ethr =  2.20E-10,  avg # of iterations =  1.0

     total cpu time spent up to now is      173.9 secs

     total energy              =   -1913.19472376 Ry
     estimated scf accuracy    <       0.00000021 Ry

     iteration # 13     ecut=   100.00 Ry     beta= 0.50
     Davidson diagonalization with overlap
     ethr =  5.44E-11,  avg # of iterations =  1.0

     total cpu time spent up to now is      185.4 secs

     total energy              =   -1913.19472377 Ry
     estimated scf accuracy    <          4.2E-09 Ry

     iteration # 14     ecut=   100.00 Ry     beta= 0.50
     Davidson diagonalization with overlap
     ethr =  1.12E-12,  avg # of iterations =  2.0

     total cpu time spent up to now is      198.6 secs

     total energy              =   -1913.19472377 Ry
     estimated scf accuracy    <          5.3E-10 Ry

     iteration # 15     ecut=   100.00 Ry     beta= 0.50
     Davidson diagonalization with overlap
     ethr =  1.40E-13,  avg # of iterations =  1.0

     total cpu time spent up to now is      210.1 secs

     total energy              =   -1913.19472377 Ry
     estimated scf accuracy    <          3.6E-10 Ry

     iteration # 16     ecut=   100.00 Ry     beta= 0.50
     Davidson diagonalization with overlap
     ethr =  1.00E-13,  avg # of iterations =  1.0

     total cpu time spent up to now is      221.6 secs

     total energy              =   -1913.19472377 Ry
     estimated scf accuracy    <          1.3E-10 Ry

     iteration # 17     ecut=   100.00 Ry     beta= 0.50
     Davidson diagonalization with overlap
     ethr =  1.00E-13,  avg # of iterations =  1.0

     total cpu time spent up to now is      233.0 secs

     End of self-consistent calculation

          k = 0.2500 0.2500 0.2500 ( 89378 PWs)   bands (ev):

   -41.5323 -41.4997 -41.4867 -41.4867 -41.4655 -41.4572 -41.4572 -41.4524
   -41.4352 -41.4352 -41.4255 -41.4190 -41.4190 -41.4130 -41.4106 -41.4106
   -41.4017 -41.3963 -41.3937 -41.3937 -41.3855 -41.3855 -41.3814 -41.3775
   -41.3722 -41.3702 -41.3702 -41.3635 -41.3635 -41.3614 -41.3540 -41.3533
   -41.3533 -41.3423 -41.3423 -41.3406 -41.3378 -41.3378 -41.3303 -41.3233
   -41.3233 -41.3215 -41.3215 -41.3215 -41.3149 -41.3048 -41.3048 -41.3018
   -41.2983 -41.2983 -41.2933 -41.2916 -41.2916 -41.2871 -41.2790 -41.2701
   -41.2701 -41.2678 -41.2590 -41.2590 -41.2406 -41.2336 -41.2336 -41.2114
   -14.1468 -14.0881 -14.0881 -14.0788 -14.0397 -14.0397 -14.0352 -14.0084
   -14.0000 -14.0000 -13.9946 -13.9780 -13.9769 -13.9769 -13.9751 -13.9751
   -13.9681 -13.9662 -13.9662 -13.9544 -13.9456 -13.9456 -13.9411 -13.9411
   -13.9335 -13.9333 -13.9329 -13.9329 -13.9257 -13.9195 -13.9195  -0.1937
    -0.1609  -0.1609  -0.0040   0.0700   0.0700   0.1461   0.1998   0.2148
     0.2148   0.2188   0.2715   0.2715   0.3777   0.3777   0.3777   0.4098
     0.4472   0.4472   0.5296   0.5867   0.5867   0.6878   0.7325   0.7325
     0.7601   0.7601   0.7868   1.0263   1.0263   1.0411   1.0455   1.0455
     1.0466   1.0728   1.0728   1.1555   1.1576   1.1705   1.1705   1.1738
     1.2051   1.2051   1.2073   1.2272   1.2272   1.2358   1.2360   1.2360
     1.3202   1.3211   1.3211   1.3840   1.3840   1.3845   1.4381   1.4381
     1.4792   1.4808   1.5348   1.5348   1.5758   1.6221   1.6221   1.6579
     1.7172   1.7172   1.7483   1.7613   1.7613   1.7702   1.7702   1.7715
     1.7817   1.7817   1.7829   1.7972   1.7972   1.8124   1.8918   1.9192
     1.9192   1.9679   2.0105   2.0105   2.0448   2.1158   2.1158   2.1302
     2.1302   2.1654   2.3133   2.3133   5.0274   8.5658   8.5658   8.6326
     8.7553   8.9871   8.9871   9.0532   9.4196   9.4196   9.6193   9.6890
     9.6890  10.1131  10.1186  10.1186  10.1859  10.2857  10.2857  10.4084
    10.4893  10.4893  10.6732  10.6847  10.6865  10.6865  10.9860  10.9860
    11.1403  11.4525  11.4525  11.5312  11.7732  13.1937  13.1937  13.5987
    13.7290  13.7291  13.7799

          k = 0.2500 0.2500-0.2500 ( 89378 PWs)   bands (ev):

   -41.5323 -41.4997 -41.4867 -41.4867 -41.4655 -41.4572 -41.4572 -41.4524
   -41.4352 -41.4352 -41.4255 -41.4190 -41.4190 -41.4130 -41.4106 -41.4106
   -41.4017 -41.3963 -41.3937 -41.3937 -41.3855 -41.3855 -41.3814 -41.3775
   -41.3722 -41.3702 -41.3702 -41.3635 -41.3635 -41.3614 -41.3540 -41.3533
   -41.3533 -41.3423 -41.3423 -41.3406 -41.3378 -41.3378 -41.3303 -41.3233
   -41.3233 -41.3215 -41.3215 -41.3215 -41.3149 -41.3048 -41.3048 -41.3018
   -41.2983 -41.2983 -41.2933 -41.2916 -41.2916 -41.2871 -41.2790 -41.2701
   -41.2701 -41.2678 -41.2590 -41.2590 -41.2406 -41.2336 -41.2336 -41.2114
   -14.1468 -14.0881 -14.0881 -14.0788 -14.0397 -14.0397 -14.0352 -14.0084
   -14.0000 -14.0000 -13.9946 -13.9780 -13.9769 -13.9769 -13.9751 -13.9751
   -13.9681 -13.9662 -13.9662 -13.9544 -13.9456 -13.9456 -13.9411 -13.9411
   -13.9335 -13.9333 -13.9329 -13.9329 -13.9257 -13.9195 -13.9195  -0.1937
    -0.1609  -0.1609  -0.0040   0.0700   0.0700   0.1461   0.1998   0.2148
     0.2148   0.2188   0.2715   0.2715   0.3777   0.3777   0.3777   0.4098
     0.4472   0.4472   0.5296   0.5867   0.5867   0.6878   0.7325   0.7325
     0.7601   0.7601   0.7868   1.0263   1.0263   1.0411   1.0455   1.0455
     1.0466   1.0728   1.0728   1.1555   1.1576   1.1705   1.1705   1.1738
     1.2051   1.2051   1.2073   1.2272   1.2272   1.2358   1.2360   1.2360
     1.3202   1.3211   1.3211   1.3840   1.3840   1.3845   1.4381   1.4381
     1.4792   1.4808   1.5348   1.5348   1.5758   1.6221   1.6221   1.6579
     1.7172   1.7172   1.7483   1.7613   1.7613   1.7702   1.7702   1.7715
     1.7817   1.7817   1.7829   1.7972   1.7972   1.8124   1.8918   1.9192
     1.9192   1.9679   2.0105   2.0105   2.0448   2.1158   2.1158   2.1302
     2.1302   2.1654   2.3133   2.3133   5.0274   8.5658   8.5658   8.6326
     8.7553   8.9871   8.9871   9.0532   9.4196   9.4196   9.6193   9.6890
     9.6890  10.1131  10.1186  10.1186  10.1859  10.2857  10.2857  10.4084
    10.4893  10.4893  10.6732  10.6847  10.6865  10.6865  10.9860  10.9860
    11.1403  11.4525  11.4525  11.5312  11.7732  13.1937  13.1937  13.5987
    13.7290  13.7290  13.7799

          k = 0.2500-0.2500 0.2500 ( 89378 PWs)   bands (ev):

   -41.5323 -41.4997 -41.4867 -41.4867 -41.4655 -41.4572 -41.4572 -41.4524
   -41.4352 -41.4352 -41.4255 -41.4190 -41.4190 -41.4130 -41.4106 -41.4106
   -41.4017 -41.3963 -41.3937 -41.3937 -41.3855 -41.3855 -41.3814 -41.3775
   -41.3722 -41.3702 -41.3702 -41.3635 -41.3635 -41.3614 -41.3540 -41.3533
   -41.3533 -41.3423 -41.3423 -41.3406 -41.3378 -41.3378 -41.3303 -41.3233
   -41.3233 -41.3215 -41.3215 -41.3215 -41.3149 -41.3048 -41.3048 -41.3018
   -41.2983 -41.2983 -41.2933 -41.2916 -41.2916 -41.2871 -41.2790 -41.2701
   -41.2701 -41.2678 -41.2590 -41.2590 -41.2406 -41.2336 -41.2336 -41.2114
   -14.1468 -14.0881 -14.0881 -14.0788 -14.0397 -14.0397 -14.0352 -14.0084
   -14.0000 -14.0000 -13.9946 -13.9780 -13.9769 -13.9769 -13.9751 -13.9751
   -13.9681 -13.9662 -13.9662 -13.9544 -13.9456 -13.9456 -13.9411 -13.9411
   -13.9335 -13.9333 -13.9329 -13.9329 -13.9257 -13.9195 -13.9195  -0.1937
    -0.1609  -0.1609  -0.0040   0.0700   0.0700   0.1461   0.1998   0.2148
     0.2148   0.2188   0.2715   0.2715   0.3777   0.3777   0.3777   0.4098
     0.4472   0.4472   0.5296   0.5867   0.5867   0.6878   0.7325   0.7325
     0.7601   0.7601   0.7868   1.0263   1.0263   1.0411   1.0455   1.0455
     1.0466   1.0728   1.0728   1.1555   1.1576   1.1705   1.1705   1.1738
     1.2051   1.2051   1.2073   1.2272   1.2272   1.2358   1.2360   1.2360
     1.3202   1.3211   1.3211   1.3840   1.3840   1.3845   1.4381   1.4381
     1.4792   1.4808   1.5348   1.5348   1.5758   1.6221   1.6221   1.6579
     1.7172   1.7172   1.7483   1.7613   1.7613   1.7702   1.7702   1.7715
     1.7817   1.7817   1.7829   1.7972   1.7972   1.8124   1.8918   1.9192
     1.9192   1.9679   2.0105   2.0105   2.0448   2.1158   2.1158   2.1302
     2.1302   2.1654   2.3133   2.3133   5.0274   8.5658   8.5658   8.6326
     8.7553   8.9871   8.9871   9.0532   9.4196   9.4196   9.6193   9.6890
     9.6890  10.1131  10.1186  10.1186  10.1859  10.2857  10.2857  10.4084
    10.4893  10.4893  10.6732  10.6847  10.6865  10.6865  10.9860  10.9860
    11.1403  11.4525  11.4525  11.5312  11.7732  13.1937  13.1937  13.5987
    13.7290  13.7290  13.7798

          k = 0.2500-0.2500-0.2500 ( 89378 PWs)   bands (ev):

   -41.5323 -41.4997 -41.4867 -41.4867 -41.4655 -41.4572 -41.4572 -41.4524
   -41.4352 -41.4352 -41.4255 -41.4190 -41.4190 -41.4130 -41.4106 -41.4106
   -41.4017 -41.3963 -41.3937 -41.3937 -41.3855 -41.3855 -41.3814 -41.3775
   -41.3722 -41.3702 -41.3702 -41.3635 -41.3635 -41.3614 -41.3540 -41.3533
   -41.3533 -41.3423 -41.3423 -41.3406 -41.3378 -41.3378 -41.3303 -41.3233
   -41.3233 -41.3215 -41.3215 -41.3215 -41.3149 -41.3048 -41.3048 -41.3018
   -41.2983 -41.2983 -41.2933 -41.2916 -41.2916 -41.2871 -41.2790 -41.2701
   -41.2701 -41.2678 -41.2590 -41.2590 -41.2406 -41.2336 -41.2336 -41.2114
   -14.1468 -14.0881 -14.0881 -14.0788 -14.0397 -14.0397 -14.0352 -14.0084
   -14.0000 -14.0000 -13.9946 -13.9780 -13.9769 -13.9769 -13.9751 -13.9751
   -13.9681 -13.9662 -13.9662 -13.9544 -13.9456 -13.9456 -13.9411 -13.9411
   -13.9335 -13.9333 -13.9329 -13.9329 -13.9257 -13.9195 -13.9195  -0.1937
    -0.1609  -0.1609  -0.0040   0.0700   0.0700   0.1461   0.1998   0.2148
     0.2148   0.2188   0.2715   0.2715   0.3777   0.3777   0.3777   0.4098
     0.4472   0.4472   0.5296   0.5867   0.5867   0.6878   0.7325   0.7325
     0.7601   0.7601   0.7868   1.0263   1.0263   1.0411   1.0455   1.0455
     1.0466   1.0728   1.0728   1.1555   1.1576   1.1705   1.1705   1.1738
     1.2051   1.2051   1.2073   1.2272   1.2272   1.2358   1.2360   1.2360
     1.3202   1.3211   1.3211   1.3840   1.3840   1.3845   1.4381   1.4381
     1.4792   1.4808   1.5348   1.5348   1.5758   1.6221   1.6221   1.6579
     1.7172   1.7172   1.7483   1.7613   1.7613   1.7702   1.7702   1.7715
     1.7817   1.7817   1.7829   1.7972   1.7972   1.8124   1.8918   1.9192
     1.9192   1.9679   2.0105   2.0105   2.0448   2.1158   2.1158   2.1302
     2.1302   2.1654   2.3133   2.3133   5.0274   8.5658   8.5658   8.6326
     8.7553   8.9871   8.9871   9.0532   9.4196   9.4196   9.6193   9.6890
     9.6890  10.1131  10.1186  10.1186  10.1859  10.2857  10.2857  10.4084
    10.4893  10.4893  10.6732  10.6847  10.6865  10.6865  10.9860  10.9860
    11.1403  11.4525  11.4525  11.5312  11.7732  13.1937  13.1937  13.5987
    13.7290  13.7290  13.7798

     the Fermi energy is     7.1890 ev

!    total energy              =   -1913.19472377 Ry
     estimated scf accuracy    <          5.7E-12 Ry
     smearing contrib. (-TS)   =      -0.00000000 Ry
     internal energy E=F+TS    =   -1913.19472377 Ry

     The total energy is F=E-TS. E is the sum of the following terms:
     one-electron contribution =    -793.61778426 Ry
     hartree contribution      =     475.93701298 Ry
     xc contribution           =    -440.59742603 Ry
     ewald contribution        =   -1154.91652645 Ry

     convergence has been achieved in  17 iterations
     Writing meta-gga kinetic term

     Forces acting on atoms (cartesian axes, Ry/au):

     atom    1 type  1   force =     0.00000001   -0.00000000   -0.00000000
     atom    2 type  1   force =     0.00000001    0.00000000   -0.00000000
     atom    3 type  1   force =     0.00000000    0.00000000    0.00000000
     atom    4 type  1   force =    -0.00000000   -0.00000001   -0.00000001
     atom    5 type  1   force =    -0.00000001   -0.00000001   -0.00000000
     atom    6 type  1   force =    -0.00000000    0.00000001   -0.00000000
     atom    7 type  1   force =    -0.00000001    0.00000000    0.00000001
     atom    8 type  1   force =     0.00000001   -0.00006216   -0.00006215
     atom    9 type  1   force =    -0.00000001   -0.00006215    0.00006215
     atom   10 type  1   force =     0.00000000    0.00006216   -0.00006216
     atom   11 type  1   force =     0.00000000    0.00006216    0.00006215
     atom   12 type  1   force =    -0.00000000    0.00027964    0.00027964
     atom   13 type  1   force =    -0.00000000    0.00027963   -0.00027965
     atom   14 type  1   force =    -0.00000001   -0.00027963    0.00027964
     atom   15 type  1   force =    -0.00000000   -0.00027963   -0.00027964
     atom   16 type  1   force =    -0.00006216    0.00000000   -0.00006216
     atom   17 type  1   force =    -0.00006216    0.00000000    0.00006216
     atom   18 type  1   force =     0.00027964   -0.00000000    0.00027964
     atom   19 type  1   force =     0.00027964   -0.00000000   -0.00027965
     atom   20 type  1   force =     0.00006216   -0.00000000   -0.00006216
     atom   21 type  1   force =     0.00006217   -0.00000001    0.00006215
     atom   22 type  1   force =    -0.00027964   -0.00000000    0.00027964
     atom   23 type  1   force =    -0.00027964    0.00000001   -0.00027964
     atom   24 type  1   force =    -0.00006216   -0.00006216    0.00000001
     atom   25 type  1   force =     0.00027964    0.00027964    0.00000000
     atom   26 type  1   force =    -0.00006216    0.00006216    0.00000000
     atom   27 type  1   force =     0.00027964   -0.00027964    0.00000001
     atom   28 type  1   force =     0.00006215   -0.00006216    0.00000001
     atom   29 type  1   force =    -0.00027964    0.00027964   -0.00000000
     atom   30 type  1   force =     0.00006216    0.00006216    0.00000000
     atom   31 type  1   force =    -0.00027964   -0.00027964   -0.00000000
     atom   32 type  2   force =    -0.00000638   -0.00000639   -0.00015145
     atom   33 type  2   force =    -0.00000146   -0.00000146    0.00000147
     atom   34 type  2   force =     0.00049643   -0.00055356    0.00055357
     atom   35 type  2   force =    -0.00000639    0.00015145    0.00000639
     atom   36 type  2   force =    -0.00055357    0.00049642    0.00055357
     atom   37 type  2   force =     0.00015145   -0.00000640    0.00000640
     atom   38 type  2   force =     0.01300383    0.01300382   -0.01300382
     atom   39 type  2   force =    -0.00055357   -0.00055357   -0.00049643
     atom   40 type  2   force =    -0.00000639   -0.00015145   -0.00000639
     atom   41 type  2   force =     0.00049643    0.00055356   -0.00055357
     atom   42 type  2   force =    -0.00000146    0.00000146   -0.00000146
     atom   43 type  2   force =    -0.00000639    0.00000638    0.00015145
     atom   44 type  2   force =    -0.00055357    0.00055357    0.00049643
     atom   45 type  2   force =     0.01300383   -0.01300382    0.01300382
     atom   46 type  2   force =     0.00015145    0.00000640   -0.00000640
     atom   47 type  2   force =    -0.00055357   -0.00049643   -0.00055357
     atom   48 type  2   force =    -0.00015145   -0.00000640   -0.00000639
     atom   49 type  2   force =     0.00055356    0.00049643   -0.00055358
     atom   50 type  2   force =     0.00055357   -0.00055357    0.00049642
     atom   51 type  2   force =    -0.01300382    0.01300383    0.01300382
     atom   52 type  2   force =     0.00000146   -0.00000146   -0.00000146
     atom   53 type  2   force =     0.00000639   -0.00000639    0.00015146
     atom   54 type  2   force =     0.00000639    0.00015145   -0.00000639
     atom   55 type  2   force =    -0.00049643   -0.00055357   -0.00055357
     atom   56 type  2   force =    -0.01300383   -0.01300383   -0.01300382
     atom   57 type  2   force =     0.00055357    0.00055357   -0.00049642
     atom   58 type  2   force =     0.00055356   -0.00049643    0.00055357
     atom   59 type  2   force =    -0.00015145    0.00000639    0.00000640
     atom   60 type  2   force =    -0.00049643    0.00055357    0.00055357
     atom   61 type  2   force =     0.00000639   -0.00015145    0.00000639
     atom   62 type  2   force =     0.00000639    0.00000639   -0.00015146
     atom   63 type  2   force =     0.00000146    0.00000146    0.00000146
     atom   64 type  2   force =     0.00055357    0.00055357    0.00049642
     atom   65 type  2   force =    -0.01300383   -0.01300383    0.01300382
     atom   66 type  2   force =    -0.00015145    0.00000640   -0.00000640
     atom   67 type  2   force =     0.00055357   -0.00049643   -0.00055357
     atom   68 type  2   force =     0.00000639   -0.00015145   -0.00000639
     atom   69 type  2   force =    -0.00049643    0.00055357   -0.00055357
     atom   70 type  2   force =     0.00000146    0.00000146   -0.00000146
     atom   71 type  2   force =     0.00000639    0.00000639    0.00015146
     atom   72 type  2   force =     0.00055356    0.00049643    0.00055357
     atom   73 type  2   force =    -0.00015145   -0.00000640    0.00000640
     atom   74 type  2   force =    -0.01300383    0.01300382   -0.01300382
     atom   75 type  2   force =     0.00055357   -0.00055357   -0.00049642
     atom   76 type  2   force =     0.00000639   -0.00000639   -0.00015145
     atom   77 type  2   force =     0.00000146   -0.00000146    0.00000146
     atom   78 type  2   force =    -0.00049643   -0.00055357    0.00055357
     atom   79 type  2   force =     0.00000639    0.00015145    0.00000639
     atom   80 type  2   force =     0.00049643    0.00055356    0.00055357
     atom   81 type  2   force =    -0.00000639   -0.00015145    0.00000639
     atom   82 type  2   force =    -0.00000639    0.00000639   -0.00015145
     atom   83 type  2   force =    -0.00000146    0.00000146    0.00000147
     atom   84 type  2   force =     0.01300382   -0.01300382   -0.01300382
     atom   85 type  2   force =    -0.00055356    0.00055357   -0.00049642
     atom   86 type  2   force =    -0.00055357   -0.00049642    0.00055357
     atom   87 type  2   force =     0.00015145    0.00000639    0.00000639
     atom   88 type  2   force =    -0.00000146   -0.00000146   -0.00000146
     atom   89 type  2   force =    -0.00000639   -0.00000638    0.00015145
     atom   90 type  2   force =    -0.00000639    0.00015145   -0.00000639
     atom   91 type  2   force =     0.00049643   -0.00055357   -0.00055357
     atom   92 type  2   force =     0.00015145   -0.00000640   -0.00000639
     atom   93 type  2   force =    -0.00055356    0.00049642   -0.00055357
     atom   94 type  2   force =    -0.00055356   -0.00055357    0.00049642
     atom   95 type  2   force =     0.01300382    0.01300382    0.01300383

     Total force =     0.063887     Total SCF correction =     0.000000

     BFGS Geometry Optimization
     Energy error            =      4.1E-03 Ry
     Gradient error          =      1.3E-02 Ry/Bohr

     number of scf cycles    =   1
     number of bfgs steps    =   0

     energy             new  =   -1913.1947237668 Ry

     new trust radius        =       0.0225232841 bohr
     new conv_thr            =            1.0E-10 Ry


ATOMIC_POSITIONS (crystal)
O                0.0000000004       -0.0000000002       -0.0000000002
O                0.0000000004        0.0000000003        0.4999999997
O                0.0000000002        0.5000000002        0.0000000000
O               -0.0000000001        0.4999999995        0.4999999995
O                0.4999999996       -0.0000000003       -0.0000000000
O                0.4999999997        0.0000000004        0.4999999999
O                0.4999999995        0.5000000002        0.0000000005
O                0.0000000005        0.2499964325        0.2499964327
O               -0.0000000004        0.2499964327        0.7500035672
O                0.0000000002        0.7500035676        0.2499964321
O                0.0000000002        0.7500035676        0.7500035672
O                0.4999999997        0.2500160497        0.2500160498
O                0.4999999998        0.2500160495        0.7499839497
O                0.4999999995        0.7499839506        0.2500160497
O                0.4999999997        0.7499839505        0.7499839503
O                0.2499964322        0.0000000001        0.2499964325
O                0.2499964322        0.0000000002        0.7500035679
O                0.2500160499        0.4999999999        0.2500160500
O                0.2500160500        0.5000000000        0.7499839499
O                0.7500035676       -0.0000000000        0.2499964322
O                0.7500035681       -0.0000000005        0.7500035672
O                0.7499839503        0.5000000000        0.2500160500
O                0.7499839502        0.5000000003        0.7499839501
O                0.2499964324        0.2499964325        0.0000000003
O                0.2500160497        0.2500160498        0.5000000000
O                0.2499964324        0.7500035676        0.0000000001
O                0.2500160499        0.7499839502        0.5000000003
O                0.7500035672        0.2499964321        0.0000000003
O                0.7499839504        0.2500160497        0.4999999999
O                0.7500035677        0.7500035679        0.0000000001
O                0.7499839500        0.7499839502        0.5000000000
Li               0.1249996336        0.1249996335        0.3749913076
Li               0.1249999160        0.1249999160        0.8750000841
Li               0.1250284923        0.6249682284        0.3750317720
Li               0.1249996332        0.6250086926        0.8750003669
Li               0.6249682283        0.1250284921        0.3750317719
Li               0.6250086926        0.1249996328        0.8750003671
Li               0.6257463482        0.6257463479        0.3742536519
Li               0.6249682283        0.6249682283        0.8749715078
Li               0.1249996332        0.3749913074        0.1249996331
Li               0.1250284924        0.3750317715        0.6249682280
Li               0.1249999160        0.8750000840        0.1249999160
Li               0.1249996335        0.8750003664        0.6250086926
Li               0.6249682283        0.3750317718        0.1250284921
Li               0.6257463483        0.3742536520        0.6257463481
Li               0.6250086926        0.8750003672        0.1249996329
Li               0.6249682282        0.8749715078        0.6249682284
Li               0.3749913076        0.1249996329        0.1249996330
Li               0.3750317714        0.1250284922        0.6249682278
Li               0.3750317716        0.6249682282        0.1250284919
Li               0.3742536519        0.6257463483        0.6257463480
Li               0.8750000840        0.1249999159        0.1249999160
Li               0.8750003667        0.1249996333        0.6250086927
Li               0.8750003668        0.6250086925        0.1249996331
Li               0.8749715079        0.6249682281        0.6249682284
Li               0.3742536516        0.3742536517        0.3742536522
Li               0.3750317716        0.3750317719        0.8749715081
Li               0.3750317715        0.8749715079        0.3750317721
Li               0.3749913077        0.8750003669        0.8750003670
Li               0.8749715079        0.3750317718        0.3750317717
Li               0.8750003668        0.3749913075        0.8750003668
Li               0.8750003668        0.8750003668        0.3749913072
Li               0.8750000840        0.8750000840        0.8750000840
Li               0.3750317717        0.3750317718        0.1250284921
Li               0.3742536515        0.3742536518        0.6257463478
Li               0.3749913075        0.8750003671        0.1249996328
Li               0.3750317717        0.8749715076        0.6249682282
Li               0.8750003669        0.3749913075        0.1249996332
Li               0.8749715078        0.3750317718        0.6249682283
Li               0.8750000840        0.8750000840        0.1249999160
Li               0.8750003667        0.8750003668        0.6250086928
Li               0.3750317715        0.1250284923        0.3750317720
Li               0.3749913075        0.1249996328        0.8750003672
Li               0.3742536517        0.6257463481        0.3742536522
Li               0.3750317718        0.6249682284        0.8749715079
Li               0.8750003667        0.1249996333        0.3749913074
Li               0.8750000840        0.1249999160        0.8750000839
Li               0.8749715079        0.6249682282        0.3750317717
Li               0.8750003668        0.6250086925        0.8750003668
Li               0.1250284923        0.3750317714        0.3750317721
Li               0.1249996331        0.3749913075        0.8750003669
Li               0.1249996335        0.8750003666        0.3749913074
Li               0.1249999160        0.8750000840        0.8750000841
Li               0.6257463482        0.3742536519        0.3742536519
Li               0.6249682285        0.3750317720        0.8749715080
Li               0.6249682283        0.8749715081        0.3750317718
Li               0.6250086923        0.8750003669        0.8750003670
Li               0.1249999160        0.1249999160        0.1249999160
Li               0.1249996335        0.1249996336        0.6250086924
Li               0.1249996332        0.6250086926        0.1249996331
Li               0.1250284923        0.6249682284        0.6249682281
Li               0.6250086924        0.1249996329        0.1249996330
Li               0.6249682284        0.1250284920        0.6249682281
Li               0.6249682285        0.6249682280        0.1250284920
Li               0.6257463480        0.6257463480        0.6257463483



     Writing config-only to output data dir ./outdir/Li2O.save/ :
     XML data file
     NEW-OLD atomic charge density approx. for the potential

     total cpu time spent up to now is      234.8 secs

     Self-consistent Calculation

     iteration #  1     ecut=   100.00 Ry     beta= 0.50
     Davidson diagonalization with overlap
     ethr =  1.00E-06,  avg # of iterations =  4.0

     total cpu time spent up to now is      251.7 secs

     total energy              =   -1913.19800671 Ry
     estimated scf accuracy    <       0.06790787 Ry

     iteration #  2     ecut=   100.00 Ry     beta= 0.50
     Davidson diagonalization with overlap
     ethr =  1.80E-05,  avg # of iterations =  1.0

     total cpu time spent up to now is      263.1 secs

     total energy              =   -1913.19834520 Ry
     estimated scf accuracy    <       0.01721985 Ry

     iteration #  3     ecut=   100.00 Ry     beta= 0.50
     Davidson diagonalization with overlap
     ethr =  4.56E-06,  avg # of iterations =  2.0

     total cpu time spent up to now is      274.7 secs

     total energy              =   -1913.19842088 Ry
     estimated scf accuracy    <       0.00001480 Ry

     iteration #  4     ecut=   100.00 Ry     beta= 0.50
     Davidson diagonalization with overlap
     ethr =  3.91E-09,  avg # of iterations =  2.0

     total cpu time spent up to now is      286.7 secs

     total energy              =   -1913.19842267 Ry
     estimated scf accuracy    <       0.00000316 Ry

     iteration #  5     ecut=   100.00 Ry     beta= 0.50
     Davidson diagonalization with overlap
     ethr =  8.37E-10,  avg # of iterations =  2.0

     total cpu time spent up to now is      298.2 secs

     total energy              =   -1913.19842281 Ry
     estimated scf accuracy    <       0.00000016 Ry

     iteration #  6     ecut=   100.00 Ry     beta= 0.50
     Davidson diagonalization with overlap
     ethr =  4.24E-11,  avg # of iterations =  2.0

     total cpu time spent up to now is      310.0 secs

     total energy              =   -1913.19842282 Ry
     estimated scf accuracy    <       0.00000001 Ry

     iteration #  7     ecut=   100.00 Ry     beta= 0.50
     Davidson diagonalization with overlap
     ethr =  2.78E-12,  avg # of iterations =  2.0

     total cpu time spent up to now is      321.9 secs

     total energy              =   -1913.19842282 Ry
     estimated scf accuracy    <          3.2E-09 Ry

     iteration #  8     ecut=   100.00 Ry     beta= 0.50
     Davidson diagonalization with overlap
     ethr =  8.39E-13,  avg # of iterations =  2.0

     total cpu time spent up to now is      333.4 secs

     total energy              =   -1913.19842282 Ry
     estimated scf accuracy    <          2.0E-10 Ry

     iteration #  9     ecut=   100.00 Ry     beta= 0.50
     Davidson diagonalization with overlap
     ethr =  1.00E-13,  avg # of iterations =  2.0

     total cpu time spent up to now is      344.9 secs

     End of self-consistent calculation

          k = 0.2500 0.2500 0.2500 ( 89378 PWs)   bands (ev):

   -41.5197 -41.4895 -41.4831 -41.4831 -41.4554 -41.4512 -41.4512 -41.4415
   -41.4334 -41.4334 -41.4215 -41.4122 -41.4122 -41.4076 -41.4037 -41.4037
   -41.4005 -41.4002 -41.3977 -41.3977 -41.3803 -41.3803 -41.3768 -41.3753
   -41.3712 -41.3712 -41.3684 -41.3684 -41.3664 -41.3663 -41.3576 -41.3576
   -41.3489 -41.3418 -41.3418 -41.3384 -41.3384 -41.3360 -41.3322 -41.3279
   -41.3279 -41.3263 -41.3263 -41.3261 -41.3113 -41.3062 -41.3062 -41.3027
   -41.3015 -41.3015 -41.2988 -41.2969 -41.2969 -41.2914 -41.2797 -41.2736
   -41.2736 -41.2692 -41.2635 -41.2635 -41.2426 -41.2376 -41.2376 -41.2144
   -14.1501 -14.0916 -14.0916 -14.0821 -14.0433 -14.0433 -14.0385 -14.0120
   -14.0039 -14.0039 -13.9982 -13.9826 -13.9809 -13.9809 -13.9792 -13.9792
   -13.9712 -13.9698 -13.9698 -13.9580 -13.9493 -13.9493 -13.9453 -13.9453
   -13.9376 -13.9369 -13.9369 -13.9369 -13.9293 -13.9233 -13.9233  -0.1989
    -0.1631  -0.1631  -0.0072   0.0670   0.0670   0.1417   0.1989   0.2107
     0.2107   0.2159   0.2685   0.2685   0.3745   0.3751   0.3751   0.4060
     0.4431   0.4431   0.5287   0.5828   0.5828   0.6831   0.7291   0.7291
     0.7589   0.7589   0.7850   1.0226   1.0226   1.0378   1.0401   1.0430
     1.0430   1.0699   1.0699   1.1527   1.1567   1.1660   1.1660   1.1725
     1.2006   1.2006   1.2061   1.2234   1.2234   1.2314   1.2314   1.2324
     1.3161   1.3161   1.3162   1.3807   1.3815   1.3815   1.4342   1.4342
     1.4761   1.4763   1.5304   1.5304   1.5721   1.6189   1.6189   1.6533
     1.7132   1.7132   1.7452   1.7576   1.7576   1.7653   1.7657   1.7657
     1.7768   1.7768   1.7797   1.7927   1.7927   1.8096   1.8874   1.9146
     1.9146   1.9637   2.0061   2.0061   2.0411   2.1118   2.1118   2.1257
     2.1257   2.1611   2.3088   2.3088   5.1025   8.5827   8.5827   8.6515
     8.7472   9.0058   9.0058   9.0570   9.4195   9.4195   9.6122   9.6836
     9.6836  10.1105  10.1271  10.1271  10.1807  10.2832  10.2832  10.4140
    10.4878  10.4878  10.6645  10.6820  10.6842  10.6842  10.9851  10.9851
    11.1375  11.4533  11.4533  11.5250  11.7844  13.2113  13.2113  13.6157
    13.7292  13.7293  13.7824

          k = 0.2500 0.2500-0.2500 ( 89378 PWs)   bands (ev):

   -41.5197 -41.4895 -41.4831 -41.4831 -41.4554 -41.4512 -41.4512 -41.4415
   -41.4334 -41.4334 -41.4215 -41.4122 -41.4122 -41.4076 -41.4037 -41.4037
   -41.4005 -41.4002 -41.3977 -41.3977 -41.3803 -41.3803 -41.3768 -41.3753
   -41.3712 -41.3712 -41.3684 -41.3684 -41.3664 -41.3663 -41.3576 -41.3576
   -41.3489 -41.3418 -41.3418 -41.3384 -41.3384 -41.3360 -41.3322 -41.3279
   -41.3279 -41.3263 -41.3263 -41.3261 -41.3113 -41.3062 -41.3062 -41.3027
   -41.3015 -41.3015 -41.2988 -41.2969 -41.2969 -41.2914 -41.2797 -41.2736
   -41.2736 -41.2692 -41.2635 -41.2635 -41.2426 -41.2376 -41.2376 -41.2144
   -14.1501 -14.0916 -14.0916 -14.0821 -14.0433 -14.0433 -14.0385 -14.0120
   -14.0039 -14.0039 -13.9982 -13.9826 -13.9809 -13.9809 -13.9792 -13.9792
   -13.9712 -13.9698 -13.9698 -13.9580 -13.9493 -13.9493 -13.9453 -13.9453
   -13.9376 -13.9369 -13.9369 -13.9369 -13.9293 -13.9233 -13.9233  -0.1989
    -0.1631  -0.1631  -0.0072   0.0670   0.0670   0.1417   0.1989   0.2107
     0.2107   0.2159   0.2685   0.2685   0.3745   0.3751   0.3751   0.4060
     0.4431   0.4431   0.5287   0.5828   0.5828   0.6831   0.7291   0.7291
     0.7589   0.7589   0.7850   1.0226   1.0226   1.0378   1.0401   1.0430
     1.0430   1.0699   1.0699   1.1527   1.1567   1.1660   1.1660   1.1725
     1.2006   1.2006   1.2061   1.2234   1.2234   1.2314   1.2314   1.2324
     1.3161   1.3161   1.3162   1.3807   1.3815   1.3815   1.4342   1.4342
     1.4761   1.4763   1.5304   1.5304   1.5721   1.6189   1.6189   1.6533
     1.7132   1.7132   1.7452   1.7576   1.7576   1.7653   1.7657   1.7657
     1.7768   1.7768   1.7797   1.7927   1.7927   1.8096   1.8874   1.9146
     1.9146   1.9637   2.0061   2.0061   2.0411   2.1118   2.1118   2.1257
     2.1257   2.1611   2.3088   2.3088   5.1025   8.5827   8.5827   8.6515
     8.7472   9.0058   9.0058   9.0570   9.4195   9.4195   9.6122   9.6836
     9.6836  10.1105  10.1271  10.1271  10.1807  10.2832  10.2832  10.4140
    10.4878  10.4878  10.6645  10.6820  10.6842  10.6842  10.9851  10.9851
    11.1375  11.4533  11.4533  11.5250  11.7844  13.2113  13.2113  13.6157
    13.7292  13.7293  13.7824

          k = 0.2500-0.2500 0.2500 ( 89378 PWs)   bands (ev):

   -41.5197 -41.4895 -41.4831 -41.4831 -41.4554 -41.4512 -41.4512 -41.4415
   -41.4334 -41.4334 -41.4215 -41.4122 -41.4122 -41.4076 -41.4037 -41.4037
   -41.4005 -41.4002 -41.3977 -41.3977 -41.3803 -41.3803 -41.3768 -41.3753
   -41.3712 -41.3712 -41.3684 -41.3684 -41.3664 -41.3663 -41.3576 -41.3576
   -41.3489 -41.3418 -41.3418 -41.3384 -41.3384 -41.3360 -41.3322 -41.3279
   -41.3279 -41.3263 -41.3263 -41.3261 -41.3113 -41.3062 -41.3062 -41.3027
   -41.3015 -41.3015 -41.2988 -41.2969 -41.2969 -41.2914 -41.2797 -41.2736
   -41.2736 -41.2692 -41.2635 -41.2635 -41.2426 -41.2376 -41.2376 -41.2144
   -14.1501 -14.0916 -14.0916 -14.0821 -14.0433 -14.0433 -14.0385 -14.0120
   -14.0039 -14.0039 -13.9982 -13.9826 -13.9809 -13.9809 -13.9792 -13.9792
   -13.9712 -13.9698 -13.9698 -13.9580 -13.9493 -13.9493 -13.9453 -13.9453
   -13.9376 -13.9369 -13.9369 -13.9369 -13.9293 -13.9233 -13.9233  -0.1989
    -0.1631  -0.1631  -0.0072   0.0670   0.0670   0.1417   0.1989   0.2107
     0.2107   0.2159   0.2685   0.2685   0.3745   0.3751   0.3751   0.4060
     0.4431   0.4431   0.5287   0.5828   0.5828   0.6831   0.7291   0.7291
     0.7589   0.7589   0.7850   1.0226   1.0226   1.0378   1.0401   1.0430
     1.0430   1.0699   1.0699   1.1527   1.1567   1.1660   1.1660   1.1725
     1.2006   1.2006   1.2061   1.2234   1.2234   1.2314   1.2314   1.2324
     1.3161   1.3161   1.3162   1.3807   1.3815   1.3815   1.4342   1.4342
     1.4761   1.4763   1.5304   1.5304   1.5721   1.6189   1.6189   1.6533
     1.7132   1.7132   1.7452   1.7576   1.7576   1.7653   1.7657   1.7657
     1.7768   1.7768   1.7797   1.7927   1.7927   1.8096   1.8874   1.9146
     1.9146   1.9637   2.0061   2.0061   2.0411   2.1118   2.1118   2.1257
     2.1257   2.1611   2.3088   2.3088   5.1025   8.5827   8.5827   8.6515
     8.7472   9.0058   9.0058   9.0570   9.4195   9.4195   9.6122   9.6836
     9.6836  10.1105  10.1271  10.1271  10.1807  10.2832  10.2832  10.4140
    10.4878  10.4878  10.6645  10.6820  10.6842  10.6842  10.9851  10.9851
    11.1375  11.4533  11.4533  11.5250  11.7844  13.2113  13.2113  13.6157
    13.7292  13.7293  13.7823

          k = 0.2500-0.2500-0.2500 ( 89378 PWs)   bands (ev):

   -41.5197 -41.4895 -41.4831 -41.4831 -41.4554 -41.4512 -41.4512 -41.4415
   -41.4334 -41.4334 -41.4215 -41.4122 -41.4122 -41.4076 -41.4037 -41.4037
   -41.4005 -41.4002 -41.3977 -41.3977 -41.3803 -41.3803 -41.3768 -41.3753
   -41.3712 -41.3712 -41.3684 -41.3684 -41.3664 -41.3663 -41.3576 -41.3576
   -41.3489 -41.3418 -41.3418 -41.3384 -41.3384 -41.3360 -41.3322 -41.3279
   -41.3279 -41.3263 -41.3263 -41.3261 -41.3113 -41.3062 -41.3062 -41.3027
   -41.3015 -41.3015 -41.2988 -41.2969 -41.2969 -41.2914 -41.2797 -41.2736
   -41.2736 -41.2692 -41.2635 -41.2635 -41.2426 -41.2376 -41.2376 -41.2144
   -14.1501 -14.0916 -14.0916 -14.0821 -14.0433 -14.0433 -14.0385 -14.0120
   -14.0039 -14.0039 -13.9982 -13.9826 -13.9809 -13.9809 -13.9792 -13.9792
   -13.9712 -13.9698 -13.9698 -13.9580 -13.9493 -13.9493 -13.9453 -13.9453
   -13.9376 -13.9369 -13.9369 -13.9369 -13.9293 -13.9233 -13.9233  -0.1989
    -0.1631  -0.1631  -0.0072   0.0670   0.0670   0.1417   0.1989   0.2107
     0.2107   0.2159   0.2685   0.2685   0.3745   0.3751   0.3751   0.4060
     0.4431   0.4431   0.5287   0.5828   0.5828   0.6831   0.7291   0.7291
     0.7589   0.7589   0.7850   1.0226   1.0226   1.0378   1.0401   1.0430
     1.0430   1.0699   1.0699   1.1527   1.1567   1.1660   1.1660   1.1725
     1.2006   1.2006   1.2061   1.2234   1.2234   1.2314   1.2314   1.2324
     1.3161   1.3161   1.3162   1.3807   1.3815   1.3815   1.4342   1.4342
     1.4761   1.4763   1.5304   1.5304   1.5721   1.6189   1.6189   1.6533
     1.7132   1.7132   1.7452   1.7576   1.7576   1.7653   1.7657   1.7657
     1.7768   1.7768   1.7797   1.7927   1.7927   1.8096   1.8874   1.9146
     1.9146   1.9637   2.0061   2.0061   2.0411   2.1118   2.1118   2.1257
     2.1257   2.1611   2.3088   2.3088   5.1025   8.5827   8.5827   8.6515
     8.7472   9.0058   9.0058   9.0570   9.4195   9.4195   9.6122   9.6836
     9.6836  10.1105  10.1271  10.1271  10.1807  10.2832  10.2832  10.4140
    10.4878  10.4878  10.6645  10.6820  10.6842  10.6842  10.9851  10.9851
    11.1375  11.4533  11.4533  11.5250  11.7844  13.2113  13.2113  13.6157
    13.7292  13.7293  13.7824

     the Fermi energy is     7.1928 ev

!    total energy              =   -1913.19842282 Ry
     estimated scf accuracy    <          2.4E-11 Ry
     smearing contrib. (-TS)   =      -0.00000000 Ry
     internal energy E=F+TS    =   -1913.19842282 Ry

     The total energy is F=E-TS. E is the sum of the following terms:
     one-electron contribution =    -794.41695236 Ry
     hartree contribution      =     476.31557783 Ry
     xc contribution           =    -440.60582363 Ry
     ewald contribution        =   -1154.49122466 Ry

     convergence has been achieved in   9 iterations
     Writing meta-gga kinetic term

     Forces acting on atoms (cartesian axes, Ry/au):

     atom    1 type  1   force =    -0.00000001    0.00000000   -0.00000000
     atom    2 type  1   force =     0.00000000   -0.00000000    0.00000000
     atom    3 type  1   force =    -0.00000000   -0.00000000   -0.00000001
     atom    4 type  1   force =    -0.00000000    0.00000000    0.00000001
     atom    5 type  1   force =     0.00000001   -0.00000000   -0.00000000
     atom    6 type  1   force =     0.00000000   -0.00000000    0.00000000
     atom    7 type  1   force =     0.00000001   -0.00000000   -0.00000001
     atom    8 type  1   force =    -0.00000001   -0.00000297   -0.00000297
     atom    9 type  1   force =     0.00000000   -0.00000297    0.00000297
     atom   10 type  1   force =    -0.00000000    0.00000297   -0.00000296
     atom   11 type  1   force =    -0.00000000    0.00000296    0.00000297
     atom   12 type  1   force =     0.00000001   -0.00078726   -0.00078726
     atom   13 type  1   force =     0.00000001   -0.00078727    0.00078727
     atom   14 type  1   force =    -0.00000001    0.00078726   -0.00078726
     atom   15 type  1   force =    -0.00000001    0.00078726    0.00078726
     atom   16 type  1   force =    -0.00000296   -0.00000000   -0.00000296
     atom   17 type  1   force =    -0.00000297    0.00000000    0.00000296
     atom   18 type  1   force =    -0.00078726   -0.00000000   -0.00078727
     atom   19 type  1   force =    -0.00078726    0.00000000    0.00078726
     atom   20 type  1   force =     0.00000297   -0.00000000   -0.00000296
     atom   21 type  1   force =     0.00000296    0.00000001    0.00000297
     atom   22 type  1   force =     0.00078727   -0.00000000   -0.00078727
     atom   23 type  1   force =     0.00078727   -0.00000001    0.00078726
     atom   24 type  1   force =    -0.00000297   -0.00000297   -0.00000001
     atom   25 type  1   force =    -0.00078724   -0.00078725   -0.00000001
     atom   26 type  1   force =    -0.00000297    0.00000296   -0.00000000
     atom   27 type  1   force =    -0.00078727    0.00078727   -0.00000000
     atom   28 type  1   force =     0.00000297   -0.00000296   -0.00000000
     atom   29 type  1   force =     0.00078727   -0.00078727   -0.00000000
     atom   30 type  1   force =     0.00000296    0.00000296    0.00000000
     atom   31 type  1   force =     0.00078725    0.00078724    0.00000001
     atom   32 type  2   force =    -0.00004405   -0.00004405   -0.00006340
     atom   33 type  2   force =    -0.00002295   -0.00002295    0.00002295
     atom   34 type  2   force =     0.00007859   -0.00062969    0.00062969
     atom   35 type  2   force =    -0.00004405    0.00006341    0.00004405
     atom   36 type  2   force =    -0.00062969    0.00007859    0.00062969
     atom   37 type  2   force =     0.00006340   -0.00004405    0.00004405
     atom   38 type  2   force =     0.01059376    0.01059376   -0.01059376
     atom   39 type  2   force =    -0.00062969   -0.00062969   -0.00007859
     atom   40 type  2   force =    -0.00004405   -0.00006340   -0.00004405
     atom   41 type  2   force =     0.00007859    0.00062969   -0.00062969
     atom   42 type  2   force =    -0.00002295    0.00002295   -0.00002295
     atom   43 type  2   force =    -0.00004405    0.00004405    0.00006340
     atom   44 type  2   force =    -0.00062969    0.00062969    0.00007859
     atom   45 type  2   force =     0.01059376   -0.01059376    0.01059376
     atom   46 type  2   force =     0.00006340    0.00004405   -0.00004405
     atom   47 type  2   force =    -0.00062969   -0.00007859   -0.00062969
     atom   48 type  2   force =    -0.00006341   -0.00004405   -0.00004405
     atom   49 type  2   force =     0.00062969    0.00007859   -0.00062969
     atom   50 type  2   force =     0.00062969   -0.00062969    0.00007859
     atom   51 type  2   force =    -0.01059376    0.01059376    0.01059376
     atom   52 type  2   force =     0.00002295   -0.00002295   -0.00002295
     atom   53 type  2   force =     0.00004405   -0.00004405    0.00006340
     atom   54 type  2   force =     0.00004405    0.00006341   -0.00004405
     atom   55 type  2   force =    -0.00007859   -0.00062969   -0.00062969
     atom   56 type  2   force =    -0.01059376   -0.01059376   -0.01059377
     atom   57 type  2   force =     0.00062969    0.00062969   -0.00007859
     atom   58 type  2   force =     0.00062969   -0.00007859    0.00062969
     atom   59 type  2   force =    -0.00006341    0.00004405    0.00004405
     atom   60 type  2   force =    -0.00007859    0.00062969    0.00062969
     atom   61 type  2   force =     0.00004405   -0.00006340    0.00004405
     atom   62 type  2   force =     0.00004405    0.00004405   -0.00006340
     atom   63 type  2   force =     0.00002295    0.00002295    0.00002295
     atom   64 type  2   force =     0.00062969    0.00062969    0.00007859
     atom   65 type  2   force =    -0.01059376   -0.01059376    0.01059376
     atom   66 type  2   force =    -0.00006340    0.00004405   -0.00004405
     atom   67 type  2   force =     0.00062969   -0.00007859   -0.00062969
     atom   68 type  2   force =     0.00004405   -0.00006340   -0.00004405
     atom   69 type  2   force =    -0.00007859    0.00062969   -0.00062969
     atom   70 type  2   force =     0.00002295    0.00002295   -0.00002295
     atom   71 type  2   force =     0.00004405    0.00004405    0.00006340
     atom   72 type  2   force =     0.00062969    0.00007859    0.00062969
     atom   73 type  2   force =    -0.00006341   -0.00004405    0.00004405
     atom   74 type  2   force =    -0.01059376    0.01059376   -0.01059376
     atom   75 type  2   force =     0.00062969   -0.00062969   -0.00007859
     atom   76 type  2   force =     0.00004405   -0.00004405   -0.00006340
     atom   77 type  2   force =     0.00002295   -0.00002295    0.00002295
     atom   78 type  2   force =    -0.00007859   -0.00062969    0.00062969
     atom   79 type  2   force =     0.00004405    0.00006341    0.00004405
     atom   80 type  2   force =     0.00007859    0.00062969    0.00062969
     atom   81 type  2   force =    -0.00004405   -0.00006340    0.00004405
     atom   82 type  2   force =    -0.00004405    0.00004406   -0.00006340
     atom   83 type  2   force =    -0.00002295    0.00002295    0.00002295
     atom   84 type  2   force =     0.01059376   -0.01059376   -0.01059376
     atom   85 type  2   force =    -0.00062969    0.00062969   -0.00007859
     atom   86 type  2   force =    -0.00062969   -0.00007859    0.00062969
     atom   87 type  2   force =     0.00006340    0.00004405    0.00004405
     atom   88 type  2   force =    -0.00002295   -0.00002295   -0.00002295
     atom   89 type  2   force =    -0.00004405   -0.00004405    0.00006340
     atom   90 type  2   force =    -0.00004405    0.00006340   -0.00004405
     atom   91 type  2   force =     0.00007859   -0.00062969   -0.00062969
     atom   92 type  2   force =     0.00006340   -0.00004405   -0.00004405
     atom   93 type  2   force =    -0.00062969    0.00007859   -0.00062969
     atom   94 type  2   force =    -0.00062969   -0.00062969    0.00007859
     atom   95 type  2   force =     0.01059376    0.01059376    0.01059376

     Total force =     0.052228     Total SCF correction =     0.000004
     Energy error            =      3.7E-03 Ry
     Gradient error          =      1.1E-02 Ry/Bohr

     number of scf cycles    =   2
     number of bfgs steps    =   1

     energy             old  =   -1913.1947237668 Ry
     energy             new  =   -1913.1984228192 Ry

     CASE: energy            _new < energy            _old


     WARNING: bfgs curvature condition failed, Theta= 0.984
     new trust radius        =       0.0247756125 bohr
     new conv_thr            =            3.7E-11 Ry


ATOMIC_POSITIONS (crystal)
O                0.0000000001       -0.0000000001       -0.0000000003
O                0.0000000004        0.0000000002        0.4999999999
O                0.0000000001        0.5000000000       -0.0000000004
O               -0.0000000003        0.4999999998        0.5000000000
O                0.4999999999       -0.0000000005       -0.0000000004
O                0.4999999998        0.0000000002        0.5000000000
O                0.4999999998        0.5000000001        0.0000000000
O                0.0000000001        0.2499959928        0.2499959929
O               -0.0000000004        0.2499959930        0.7500040071
O                0.0000000001        0.7500040073        0.2499959929
O               -0.0000000000        0.7500040071        0.7500040069
O                0.5000000004        0.2499595050        0.2499595054
O                0.5000000005        0.2499595044        0.7500404945
O                0.4999999989        0.7500404953        0.2499595052
O                0.4999999991        0.7500404952        0.7500404946
O                0.2499959929       -0.0000000002        0.2499959930
O                0.2499959927        0.0000000003        0.7500040072
O                0.2499595054        0.4999999995        0.2499595052
O                0.2499595056        0.5000000003        0.7500404942
O                0.7500040072       -0.0000000000        0.2499959928
O                0.7500040071        0.0000000003        0.7500040070
O                0.7500404955        0.4999999998        0.2499595049
O                0.7500404954        0.4999999994        0.7500404946
O                0.2499959927        0.2499959928       -0.0000000002
O                0.2499595066        0.2499595064        0.4999999990
O                0.2499959927        0.7500040070        0.0000000000
O                0.2499595050        0.7500404956        0.5000000002
O                0.7500040071        0.2499959928        0.0000000001
O                0.7500404954        0.2499595042        0.4999999999
O                0.7500040071        0.7500040072        0.0000000003
O                0.7500404935        0.7500404934        0.5000000006
Li               0.1249963905        0.1249963904        0.3749861301
Li               0.1249982335        0.1249982335        0.8750017667
Li               0.1250360165        0.6249202156        0.3750797847
Li               0.1249963901        0.6250138701        0.8750036100
Li               0.6249202155        0.1250360163        0.3750797846
Li               0.6250138700        0.1249963898        0.8750036102
Li               0.6265673308        0.6265673307        0.3734326693
Li               0.6249202155        0.6249202156        0.8749639837
Li               0.1249963901        0.3749861299        0.1249963901
Li               0.1250360164        0.3750797843        0.6249202153
Li               0.1249982335        0.8750017666        0.1249982334
Li               0.1249963904        0.8750036096        0.6250138701
Li               0.6249202155        0.3750797846        0.1250360164
Li               0.6265673312        0.3734326691        0.6265673310
Li               0.6250138700        0.8750036102        0.1249963898
Li               0.6249202154        0.8749639838        0.6249202156
Li               0.3749861300        0.1249963899        0.1249963900
Li               0.3750797841        0.1250360164        0.6249202152
Li               0.3750797844        0.6249202154        0.1250360162
Li               0.3734326689        0.6265673313        0.6265673309
Li               0.8750017666        0.1249982335        0.1249982335
Li               0.8750036098        0.1249963902        0.6250138701
Li               0.8750036099        0.6250138701        0.1249963901
Li               0.8749639837        0.6249202154        0.6249202156
Li               0.3734326688        0.3734326689        0.3734326691
Li               0.3750797844        0.3750797847        0.8749639839
Li               0.3750797843        0.8749639837        0.3750797848
Li               0.3749861301        0.8750036100        0.8750036102
Li               0.8749639837        0.3750797845        0.3750797845
Li               0.8750036099        0.3749861300        0.8750036099
Li               0.8750036099        0.8750036099        0.3749861298
Li               0.8750017666        0.8750017665        0.8750017666
Li               0.3750797845        0.3750797846        0.1250360164
Li               0.3734326689        0.3734326691        0.6265673304
Li               0.3749861300        0.8750036102        0.1249963898
Li               0.3750797844        0.8749639836        0.6249202155
Li               0.8750036100        0.3749861300        0.1249963902
Li               0.8749639837        0.3750797846        0.6249202155
Li               0.8750017665        0.8750017665        0.1249982334
Li               0.8750036098        0.8750036098        0.6250138702
Li               0.3750797842        0.1250360165        0.3750797848
Li               0.3749861299        0.1249963898        0.8750036103
Li               0.3734326687        0.6265673311        0.3734326693
Li               0.3750797845        0.6249202156        0.8749639838
Li               0.8750036098        0.1249963903        0.3749861299
Li               0.8750017665        0.1249982334        0.8750017665
Li               0.8749639837        0.6249202155        0.3750797845
Li               0.8750036099        0.6250138701        0.8750036100
Li               0.1250360164        0.3750797842        0.3750797848
Li               0.1249963901        0.3749861300        0.8750036100
Li               0.1249963904        0.8750036097        0.3749861300
Li               0.1249982334        0.8750017665        0.8750017667
Li               0.6265673310        0.3734326689        0.3734326690
Li               0.6249202156        0.3750797848        0.8749639839
Li               0.6249202155        0.8749639839        0.3750797846
Li               0.6250138698        0.8750036100        0.8750036101
Li               0.1249982334        0.1249982335        0.1249982335
Li               0.1249963904        0.1249963905        0.6250138699
Li               0.1249963901        0.6250138701        0.1249963901
Li               0.1250360164        0.6249202156        0.6249202154
Li               0.6250138699        0.1249963898        0.1249963900
Li               0.6249202156        0.1250360162        0.6249202153
Li               0.6249202156        0.6249202154        0.1250360163
Li               0.6265673309        0.6265673310        0.6265673313



     Writing config-only to output data dir ./outdir/Li2O.save/ :
     XML data file
     NEW-OLD atomic charge density approx. for the potential

     total cpu time spent up to now is      346.7 secs

     Self-consistent Calculation

     iteration #  1     ecut=   100.00 Ry     beta= 0.50
     Davidson diagonalization with overlap
     ethr =  1.00E-06,  avg # of iterations =  4.0

     total cpu time spent up to now is      364.3 secs

     total energy              =   -1913.20116701 Ry
     estimated scf accuracy    <       0.08431731 Ry

     iteration #  2     ecut=   100.00 Ry     beta= 0.50
     Davidson diagonalization with overlap
     ethr =  2.23E-05,  avg # of iterations =  1.0

     total cpu time spent up to now is      375.7 secs

     total energy              =   -1913.20158412 Ry
     estimated scf accuracy    <       0.02139382 Ry

     iteration #  3     ecut=   100.00 Ry     beta= 0.50
     Davidson diagonalization with overlap
     ethr =  5.66E-06,  avg # of iterations =  2.0

     total cpu time spent up to now is      387.2 secs

     total energy              =   -1913.20167525 Ry
     estimated scf accuracy    <       0.00001584 Ry

     iteration #  4     ecut=   100.00 Ry     beta= 0.50
     Davidson diagonalization with overlap
     ethr =  4.19E-09,  avg # of iterations =  2.0

     total cpu time spent up to now is      399.2 secs

     total energy              =   -1913.20167730 Ry
     estimated scf accuracy    <       0.00000375 Ry

     iteration #  5     ecut=   100.00 Ry     beta= 0.50
     Davidson diagonalization with overlap
     ethr =  9.93E-10,  avg # of iterations =  2.0

     total cpu time spent up to now is      410.7 secs

     total energy              =   -1913.20167746 Ry
     estimated scf accuracy    <       0.00000023 Ry

     iteration #  6     ecut=   100.00 Ry     beta= 0.50
     Davidson diagonalization with overlap
     ethr =  6.10E-11,  avg # of iterations =  2.0

     total cpu time spent up to now is      422.5 secs

     total energy              =   -1913.20167747 Ry
     estimated scf accuracy    <       0.00000001 Ry

     iteration #  7     ecut=   100.00 Ry     beta= 0.50
     Davidson diagonalization with overlap
     ethr =  2.97E-12,  avg # of iterations =  2.0

     total cpu time spent up to now is      434.5 secs

     total energy              =   -1913.20167747 Ry
     estimated scf accuracy    <          3.7E-09 Ry

     iteration #  8     ecut=   100.00 Ry     beta= 0.50
     Davidson diagonalization with overlap
     ethr =  9.73E-13,  avg # of iterations =  2.0

     total cpu time spent up to now is      446.0 secs

     total energy              =   -1913.20167747 Ry
     estimated scf accuracy    <          3.9E-10 Ry

     iteration #  9     ecut=   100.00 Ry     beta= 0.50
     Davidson diagonalization with overlap
     ethr =  1.02E-13,  avg # of iterations =  2.0

     total cpu time spent up to now is      458.0 secs

     End of self-consistent calculation

          k = 0.2500 0.2500 0.2500 ( 89378 PWs)   bands (ev):

   -41.5186 -41.4846 -41.4846 -41.4830 -41.4516 -41.4516 -41.4503 -41.4351
   -41.4351 -41.4346 -41.4199 -41.4052 -41.4052 -41.4046 -41.4046 -41.4042
   -41.4028 -41.4000 -41.4000 -41.4000 -41.3755 -41.3755 -41.3752 -41.3719
   -41.3719 -41.3709 -41.3709 -41.3709 -41.3707 -41.3611 -41.3611 -41.3609
   -41.3444 -41.3433 -41.3433 -41.3338 -41.3338 -41.3336 -41.3309 -41.3307
   -41.3307 -41.3301 -41.3296 -41.3296 -41.3059 -41.3045 -41.3045 -41.3040
   -41.3033 -41.3033 -41.3015 -41.3012 -41.3012 -41.2945 -41.2771 -41.2760
   -41.2760 -41.2679 -41.2667 -41.2667 -41.2418 -41.2403 -41.2403 -41.2157
   -14.1533 -14.0952 -14.0952 -14.0855 -14.0472 -14.0472 -14.0422 -14.0160
   -14.0082 -14.0082 -14.0015 -13.9878 -13.9853 -13.9853 -13.9838 -13.9838
   -13.9729 -13.9724 -13.9724 -13.9614 -13.9530 -13.9530 -13.9498 -13.9498
   -13.9414 -13.9401 -13.9401 -13.9399 -13.9346 -13.9283 -13.9283  -0.2043
    -0.1652  -0.1652  -0.0101   0.0638   0.0638   0.1369   0.1978   0.2065
     0.2065   0.2126   0.2652   0.2652   0.3706   0.3723   0.3723   0.4025
     0.4396   0.4396   0.5274   0.5786   0.5786   0.6782   0.7258   0.7258
     0.7573   0.7573   0.7829   1.0189   1.0189   1.0331   1.0355   1.0406
     1.0406   1.0672   1.0672   1.1499   1.1557   1.1612   1.1612   1.1718
     1.1956   1.1956   1.2045   1.2198   1.2198   1.2266   1.2266   1.2285
     1.3101   1.3101   1.3117   1.3766   1.3789   1.3789   1.4305   1.4305
     1.4716   1.4728   1.5258   1.5258   1.5683   1.6161   1.6161   1.6485
     1.7077   1.7077   1.7423   1.7531   1.7531   1.7591   1.7613   1.7613
     1.7723   1.7723   1.7777   1.7891   1.7891   1.8068   1.8821   1.9102
     1.9102   1.9593   2.0015   2.0015   2.0378   2.1076   2.1076   2.1216
     2.1216   2.1567   2.3043   2.3043   5.1766   8.5967   8.5967   8.6638
     8.7421   9.0230   9.0230   9.0617   9.4198   9.4198   9.6050   9.6783
     9.6783  10.1100  10.1344  10.1344  10.1765  10.2819  10.2819  10.4201
    10.4867  10.4867  10.6567  10.6814  10.6822  10.6822  10.9853  10.9853
    11.1357  11.4556  11.4556  11.5178  11.7950  13.2275  13.2275  13.6312
    13.7295  13.7296  13.7856

          k = 0.2500 0.2500-0.2500 ( 89378 PWs)   bands (ev):

   -41.5186 -41.4846 -41.4846 -41.4830 -41.4516 -41.4516 -41.4503 -41.4351
   -41.4351 -41.4346 -41.4199 -41.4052 -41.4052 -41.4046 -41.4046 -41.4042
   -41.4028 -41.4000 -41.4000 -41.4000 -41.3755 -41.3755 -41.3752 -41.3719
   -41.3719 -41.3709 -41.3709 -41.3709 -41.3707 -41.3611 -41.3611 -41.3609
   -41.3444 -41.3433 -41.3433 -41.3338 -41.3338 -41.3336 -41.3309 -41.3307
   -41.3307 -41.3301 -41.3296 -41.3296 -41.3059 -41.3045 -41.3045 -41.3040
   -41.3033 -41.3033 -41.3015 -41.3012 -41.3012 -41.2945 -41.2771 -41.2760
   -41.2760 -41.2679 -41.2667 -41.2667 -41.2418 -41.2403 -41.2403 -41.2157
   -14.1533 -14.0952 -14.0952 -14.0855 -14.0472 -14.0472 -14.0422 -14.0160
   -14.0082 -14.0082 -14.0015 -13.9878 -13.9853 -13.9853 -13.9838 -13.9838
   -13.9729 -13.9724 -13.9724 -13.9614 -13.9530 -13.9530 -13.9498 -13.9498
   -13.9414 -13.9401 -13.9401 -13.9399 -13.9346 -13.9283 -13.9283  -0.2043
    -0.1652  -0.1652  -0.0101   0.0638   0.0638   0.1369   0.1978   0.2065
     0.2065   0.2126   0.2652   0.2652   0.3706   0.3723   0.3723   0.4025
     0.4396   0.4396   0.5274   0.5786   0.5786   0.6782   0.7258   0.7258
     0.7573   0.7573   0.7829   1.0189   1.0189   1.0331   1.0355   1.0406
     1.0406   1.0672   1.0672   1.1499   1.1557   1.1612   1.1612   1.1718
     1.1956   1.1956   1.2045   1.2198   1.2198   1.2266   1.2266   1.2285
     1.3101   1.3101   1.3117   1.3766   1.3789   1.3789   1.4305   1.4305
     1.4716   1.4728   1.5258   1.5258   1.5683   1.6161   1.6161   1.6485
     1.7077   1.7077   1.7423   1.7531   1.7531   1.7591   1.7613   1.7613
     1.7723   1.7723   1.7777   1.7891   1.7891   1.8068   1.8821   1.9102
     1.9102   1.9593   2.0015   2.0015   2.0378   2.1076   2.1076   2.1216
     2.1216   2.1567   2.3043   2.3043   5.1766   8.5967   8.5967   8.6638
     8.7421   9.0230   9.0230   9.0617   9.4198   9.4198   9.6050   9.6783
     9.6783  10.1100  10.1344  10.1344  10.1765  10.2819  10.2819  10.4201
    10.4867  10.4867  10.6567  10.6814  10.6822  10.6822  10.9853  10.9853
    11.1357  11.4556  11.4556  11.5178  11.7950  13.2275  13.2275  13.6312
    13.7295  13.7296  13.7856

          k = 0.2500-0.2500 0.2500 ( 89378 PWs)   bands (ev):

   -41.5186 -41.4846 -41.4846 -41.4830 -41.4516 -41.4516 -41.4503 -41.4351
   -41.4351 -41.4346 -41.4199 -41.4052 -41.4052 -41.4046 -41.4046 -41.4042
   -41.4028 -41.4000 -41.4000 -41.4000 -41.3755 -41.3755 -41.3752 -41.3719
   -41.3719 -41.3709 -41.3709 -41.3709 -41.3707 -41.3611 -41.3611 -41.3609
   -41.3444 -41.3433 -41.3433 -41.3338 -41.3338 -41.3336 -41.3309 -41.3307
   -41.3307 -41.3301 -41.3296 -41.3296 -41.3059 -41.3045 -41.3045 -41.3040
   -41.3033 -41.3033 -41.3015 -41.3012 -41.3012 -41.2945 -41.2771 -41.2760
   -41.2760 -41.2679 -41.2667 -41.2667 -41.2418 -41.2403 -41.2403 -41.2157
   -14.1533 -14.0952 -14.0952 -14.0855 -14.0472 -14.0472 -14.0422 -14.0160
   -14.0082 -14.0082 -14.0015 -13.9878 -13.9853 -13.9853 -13.9838 -13.9838
   -13.9729 -13.9724 -13.9724 -13.9614 -13.9530 -13.9530 -13.9498 -13.9498
   -13.9414 -13.9401 -13.9401 -13.9399 -13.9346 -13.9283 -13.9283  -0.2043
    -0.1652  -0.1652  -0.0101   0.0638   0.0638   0.1369   0.1978   0.2065
     0.2065   0.2126   0.2652   0.2652   0.3706   0.3723   0.3723   0.4025
     0.4396   0.4396   0.5274   0.5786   0.5786   0.6782   0.7258   0.7258
     0.7573   0.7573   0.7829   1.0189   1.0189   1.0331   1.0355   1.0406
     1.0406   1.0672   1.0672   1.1499   1.1557   1.1612   1.1612   1.1718
     1.1956   1.1956   1.2045   1.2198   1.2198   1.2266   1.2266   1.2285
     1.3101   1.3101   1.3117   1.3766   1.3789   1.3789   1.4305   1.4305
     1.4716   1.4728   1.5258   1.5258   1.5683   1.6161   1.6161   1.6485
     1.7077   1.7077   1.7423   1.7531   1.7531   1.7591   1.7613   1.7613
     1.7723   1.7723   1.7777   1.7891   1.7891   1.8068   1.8821   1.9102
     1.9102   1.9593   2.0015   2.0015   2.0378   2.1076   2.1076   2.1216
     2.1216   2.1567   2.3043   2.3043   5.1766   8.5967   8.5967   8.6638
     8.7421   9.0230   9.0230   9.0617   9.4198   9.4198   9.6050   9.6783
     9.6783  10.1100  10.1344  10.1344  10.1765  10.2819  10.2819  10.4201
    10.4867  10.4867  10.6567  10.6814  10.6822  10.6822  10.9853  10.9853
    11.1357  11.4556  11.4556  11.5178  11.7950  13.2275  13.2275  13.6311
    13.7295  13.7296  13.7856

          k = 0.2500-0.2500-0.2500 ( 89378 PWs)   bands (ev):

   -41.5186 -41.4846 -41.4846 -41.4830 -41.4516 -41.4516 -41.4503 -41.4351
   -41.4351 -41.4346 -41.4199 -41.4052 -41.4052 -41.4046 -41.4046 -41.4042
   -41.4028 -41.4000 -41.4000 -41.4000 -41.3755 -41.3755 -41.3752 -41.3719
   -41.3719 -41.3709 -41.3709 -41.3709 -41.3707 -41.3611 -41.3611 -41.3609
   -41.3444 -41.3433 -41.3433 -41.3338 -41.3338 -41.3336 -41.3309 -41.3307
   -41.3307 -41.3301 -41.3296 -41.3296 -41.3059 -41.3045 -41.3045 -41.3040
   -41.3033 -41.3033 -41.3015 -41.3012 -41.3012 -41.2945 -41.2771 -41.2760
   -41.2760 -41.2679 -41.2667 -41.2667 -41.2418 -41.2403 -41.2403 -41.2157
   -14.1533 -14.0952 -14.0952 -14.0855 -14.0472 -14.0472 -14.0422 -14.0160
   -14.0082 -14.0082 -14.0015 -13.9878 -13.9853 -13.9853 -13.9838 -13.9838
   -13.9729 -13.9724 -13.9724 -13.9614 -13.9530 -13.9530 -13.9498 -13.9498
   -13.9414 -13.9401 -13.9401 -13.9399 -13.9346 -13.9283 -13.9283  -0.2043
    -0.1652  -0.1652  -0.0101   0.0638   0.0638   0.1369   0.1978   0.2065
     0.2065   0.2126   0.2652   0.2652   0.3706   0.3723   0.3723   0.4025
     0.4396   0.4396   0.5274   0.5786   0.5786   0.6782   0.7258   0.7258
[...]
   -41.3832 -41.3799 -41.3737 -41.3737 -41.3667 -41.3658 -41.3658 -41.3503
   -41.3503 -41.3489 -41.3464 -41.3464 -41.3449 -41.3317 -41.3317 -41.3277
   -41.3254 -41.3228 -41.3228 -41.3191 -41.3048 -41.3046 -41.3037 -41.3037
   -41.2927 -41.2927 -41.2874 -41.2832 -41.2832 -41.2769 -41.2704 -41.2704
   -41.2597 -41.2506 -41.2506 -41.2434 -41.2308 -41.2308 -41.2231 -41.1994
   -14.1662 -14.1120 -14.1120 -14.0960 -14.0625 -14.0625 -14.0482 -14.0281
   -14.0268 -14.0268 -14.0157 -14.0013 -14.0013 -13.9991 -13.9930 -13.9930
   -13.9917 -13.9874 -13.9874 -13.9769 -13.9702 -13.9702 -13.9615 -13.9597
   -13.9597 -13.9499 -13.9492 -13.9492 -13.9449 -13.9449 -13.9431  -0.2167
    -0.1775  -0.1775  -0.0217   0.0495   0.0495   0.1255   0.1893   0.1945
     0.1945   0.1945   0.2493   0.2493   0.3499   0.3605   0.3605   0.3930
     0.4313   0.4313   0.5238   0.5629   0.5629   0.6672   0.7154   0.7154
     0.7487   0.7487   0.7774   1.0097   1.0097   1.0110   1.0213   1.0374
     1.0374   1.0528   1.0528   1.1416   1.1416   1.1447   1.1504   1.1712
     1.1786   1.1786   1.2005   1.2042   1.2042   1.2083   1.2118   1.2118
     1.2862   1.2862   1.2910   1.3643   1.3713   1.3713   1.4222   1.4222
     1.4507   1.4621   1.5083   1.5083   1.5563   1.6064   1.6064   1.6329
     1.6852   1.6852   1.7271   1.7271   1.7364   1.7457   1.7524   1.7524
     1.7638   1.7652   1.7652   1.7725   1.7725   1.8020   1.8591   1.9010
     1.9010   1.9406   1.9859   1.9859   2.0278   2.0919   2.0919   2.1070
     2.1070   2.1409   2.2878   2.2878   5.4194   8.6251   8.6251   8.6711
     8.7582   9.0685   9.0685   9.0743   9.4219   9.4219   9.5891   9.6695
     9.6695  10.1052  10.1486  10.1486  10.1675  10.2793  10.2793  10.4386
    10.4839  10.4839  10.6471  10.6783  10.6834  10.6834  10.9854  10.9854
    11.1330  11.4603  11.4603  11.5021  11.8285  13.2747  13.2747  13.6749
    13.7301  13.7301  13.7993

     the Fermi energy is     7.2062 ev

!    total energy              =   -1913.20723859 Ry
     estimated scf accuracy    <          4.5E-13 Ry
     smearing contrib. (-TS)   =      -0.00000000 Ry
     internal energy E=F+TS    =   -1913.20723859 Ry

     The total energy is F=E-TS. E is the sum of the following terms:
     one-electron contribution =    -800.12319034 Ry
     hartree contribution      =     479.06085511 Ry
     xc contribution           =    -440.65061375 Ry
     ewald contribution        =   -1151.49428962 Ry

     convergence has been achieved in   8 iterations
     Writing meta-gga kinetic term

     Forces acting on atoms (cartesian axes, Ry/au):

     atom    1 type  1   force =     0.00000000   -0.00000000   -0.00000000
     atom    2 type  1   force =     0.00000000   -0.00000000   -0.00000000
     atom    3 type  1   force =    -0.00000000   -0.00000000    0.00000000
     atom    4 type  1   force =    -0.00000000   -0.00000000   -0.00000000
     atom    5 type  1   force =    -0.00000000   -0.00000000   -0.00000000
     atom    6 type  1   force =    -0.00000000    0.00000000    0.00000000
     atom    7 type  1   force =    -0.00000000   -0.00000000    0.00000000
     atom    8 type  1   force =     0.00000000   -0.00001024   -0.00001024
     atom    9 type  1   force =     0.00000000   -0.00001024    0.00001024
     atom   10 type  1   force =    -0.00000000    0.00001024   -0.00001024
     atom   11 type  1   force =    -0.00000000    0.00001024    0.00001024
     atom   12 type  1   force =     0.00000000   -0.00001983   -0.00001983
     atom   13 type  1   force =     0.00000000   -0.00001983    0.00001983
     atom   14 type  1   force =    -0.00000000    0.00001983   -0.00001983
     atom   15 type  1   force =    -0.00000000    0.00001983    0.00001983
     atom   16 type  1   force =    -0.00001024    0.00000000   -0.00001024
     atom   17 type  1   force =    -0.00001024    0.00000000    0.00001024
     atom   18 type  1   force =    -0.00001983    0.00000000   -0.00001983
     atom   19 type  1   force =    -0.00001983    0.00000000    0.00001983
     atom   20 type  1   force =     0.00001024   -0.00000000   -0.00001024
     atom   21 type  1   force =     0.00001024   -0.00000000    0.00001024
     atom   22 type  1   force =     0.00001983   -0.00000000   -0.00001983
     atom   23 type  1   force =     0.00001982   -0.00000000    0.00001983
     atom   24 type  1   force =    -0.00001024   -0.00001024    0.00000000
     atom   25 type  1   force =    -0.00001982   -0.00001982    0.00000000
     atom   26 type  1   force =    -0.00001024    0.00001024    0.00000000
     atom   27 type  1   force =    -0.00001983    0.00001983    0.00000000
     atom   28 type  1   force =     0.00001024   -0.00001024   -0.00000000
     atom   29 type  1   force =     0.00001983   -0.00001983   -0.00000000
     atom   30 type  1   force =     0.00001024    0.00001024   -0.00000000
     atom   31 type  1   force =     0.00001982    0.00001982   -0.00000000
     atom   32 type  2   force =     0.00001679    0.00001679    0.00001760
     atom   33 type  2   force =     0.00002030    0.00002030   -0.00002030
     atom   34 type  2   force =     0.00002195    0.00007880   -0.00007880
     atom   35 type  2   force =     0.00001679   -0.00001760   -0.00001679
     atom   36 type  2   force =     0.00007880    0.00002195   -0.00007880
     atom   37 type  2   force =    -0.00001760    0.00001679   -0.00001679
     atom   38 type  2   force =     0.00003330    0.00003330   -0.00003330
     atom   39 type  2   force =     0.00007880    0.00007880   -0.00002195
     atom   40 type  2   force =     0.00001679    0.00001760    0.00001679
     atom   41 type  2   force =     0.00002195   -0.00007880    0.00007880
     atom   42 type  2   force =     0.00002030   -0.00002030    0.00002030
     atom   43 type  2   force =     0.00001679   -0.00001679   -0.00001760
     atom   44 type  2   force =     0.00007880   -0.00007880    0.00002195
     atom   45 type  2   force =     0.00003330   -0.00003330    0.00003330
     atom   46 type  2   force =    -0.00001760   -0.00001679    0.00001679
     atom   47 type  2   force =     0.00007880   -0.00002195    0.00007880
     atom   48 type  2   force =     0.00001760    0.00001679    0.00001679
     atom   49 type  2   force =    -0.00007880    0.00002195    0.00007880
     atom   50 type  2   force =    -0.00007880    0.00007880    0.00002195
     atom   51 type  2   force =    -0.00003330    0.00003330    0.00003330
     atom   52 type  2   force =    -0.00002030    0.00002030    0.00002030
     atom   53 type  2   force =    -0.00001679    0.00001679   -0.00001760
     atom   54 type  2   force =    -0.00001679   -0.00001760    0.00001679
     atom   55 type  2   force =    -0.00002195    0.00007880    0.00007880
     atom   56 type  2   force =    -0.00003330   -0.00003330   -0.00003330
     atom   57 type  2   force =    -0.00007880   -0.00007880   -0.00002195
     atom   58 type  2   force =    -0.00007880   -0.00002195   -0.00007880
     atom   59 type  2   force =     0.00001760   -0.00001679   -0.00001679
     atom   60 type  2   force =    -0.00002195   -0.00007880   -0.00007880
     atom   61 type  2   force =    -0.00001679    0.00001760   -0.00001679
     atom   62 type  2   force =    -0.00001679   -0.00001679    0.00001760
     atom   63 type  2   force =    -0.00002030   -0.00002030   -0.00002030
     atom   64 type  2   force =    -0.00007880   -0.00007880    0.00002195
     atom   65 type  2   force =    -0.00003330   -0.00003330    0.00003330
     atom   66 type  2   force =     0.00001760   -0.00001679    0.00001679
     atom   67 type  2   force =    -0.00007880   -0.00002195    0.00007880
     atom   68 type  2   force =    -0.00001679    0.00001760    0.00001679
     atom   69 type  2   force =    -0.00002195   -0.00007880    0.00007880
     atom   70 type  2   force =    -0.00002030   -0.00002030    0.00002030
     atom   71 type  2   force =    -0.00001679   -0.00001679   -0.00001760
     atom   72 type  2   force =    -0.00007880    0.00002195   -0.00007880
     atom   73 type  2   force =     0.00001760    0.00001679   -0.00001679
     atom   74 type  2   force =    -0.00003330    0.00003330   -0.00003330
     atom   75 type  2   force =    -0.00007880    0.00007880   -0.00002195
     atom   76 type  2   force =    -0.00001679    0.00001679    0.00001760
     atom   77 type  2   force =    -0.00002030    0.00002030   -0.00002030
     atom   78 type  2   force =    -0.00002195    0.00007880   -0.00007880
     atom   79 type  2   force =    -0.00001679   -0.00001760   -0.00001679
     atom   80 type  2   force =     0.00002195   -0.00007880   -0.00007880
     atom   81 type  2   force =     0.00001679    0.00001760   -0.00001679
     atom   82 type  2   force =     0.00001679   -0.00001679    0.00001760
     atom   83 type  2   force =     0.00002030   -0.00002030   -0.00002030
     atom   84 type  2   force =     0.00003330   -0.00003330   -0.00003330
     atom   85 type  2   force =     0.00007880   -0.00007880   -0.00002195
     atom   86 type  2   force =     0.00007880   -0.00002195   -0.00007880
     atom   87 type  2   force =    -0.00001760   -0.00001679   -0.00001679
     atom   88 type  2   force =     0.00002030    0.00002030    0.00002030
     atom   89 type  2   force =     0.00001679    0.00001679   -0.00001760
     atom   90 type  2   force =     0.00001679   -0.00001760    0.00001679
     atom   91 type  2   force =     0.00002195    0.00007880    0.00007880
     atom   92 type  2   force =    -0.00001760    0.00001679    0.00001679
     atom   93 type  2   force =     0.00007880    0.00002195    0.00007880
     atom   94 type  2   force =     0.00007880    0.00007880    0.00002195
     atom   95 type  2   force =     0.00003330    0.00003330    0.00003330

     Total force =     0.000616     Total SCF correction =     0.000001
     Energy error            =      1.5E-06 Ry
     Gradient error          =      7.9E-05 Ry/Bohr

     bfgs converged in  11 scf cycles and  10 bfgs steps
     (criteria: energy <  1.0E-04 Ry, force <  1.0E-04 Ry/Bohr)

     End of BFGS Geometry Optimization

     Final energy             =   -1913.2072385932 Ry

     File ./outdir/Li2O.bfgs deleted, as requested
Begin final coordinates

ATOMIC_POSITIONS (crystal)
O               -0.0000000000       -0.0000000000        0.0000000000
O               -0.0000000000       -0.0000000000        0.5000000000
O                0.0000000000        0.5000000000       -0.0000000000
O               -0.0000000000        0.5000000000        0.5000000000
O                0.5000000000        0.0000000000        0.0000000000
O                0.5000000000        0.0000000000        0.5000000000
O                0.5000000000        0.5000000000       -0.0000000000
O               -0.0000000001        0.2500147577        0.2500147577
O                0.0000000001        0.2500147578        0.7499852422
O               -0.0000000000        0.7499852422        0.2500147578
O                0.0000000000        0.7499852423        0.7499852423
O                0.4999999999        0.2491750332        0.2491750332
O                0.5000000000        0.2491750333        0.7508249666
O                0.4999999999        0.7508249667        0.2491750334
O                0.5000000001        0.7508249668        0.7508249668
O                0.2500147577       -0.0000000000        0.2500147577
O                0.2500147578       -0.0000000000        0.7499852422
O                0.2491750331        0.4999999999        0.2491750332
O                0.2491750334        0.5000000000        0.7508249665
O                0.7499852422        0.0000000000        0.2500147578
O                0.7499852423        0.0000000000        0.7499852423
O                0.7508249666        0.5000000000        0.2491750334
O                0.7508249669        0.5000000000        0.7508249669
O                0.2500147577        0.2500147577       -0.0000000000
O                0.2491750332        0.2491750332        0.4999999998
O                0.2500147578        0.7499852422       -0.0000000001
O                0.2491750334        0.7508249667        0.5000000000
O                0.7499852422        0.2500147578        0.0000000000
O                0.7508249667        0.2491750333        0.5000000000
O                0.7499852423        0.7499852422        0.0000000000
O                0.7508249668        0.7508249667        0.5000000001
Li               0.1248335824        0.1248335824        0.3750368073
Li               0.1250263556        0.1250263556        0.8749736444
Li               0.1242997592        0.6246849288        0.3753150712
Li               0.1248335825        0.6249631927        0.8751664175
Li               0.6246849288        0.1242997597        0.3753150712
Li               0.6249631927        0.1248335823        0.8751664176
Li               0.6297252498        0.6297252502        0.3702747506
Li               0.6246849288        0.6246849286        0.8757002412
Li               0.1248335824        0.3750368073        0.1248335823
Li               0.1242997598        0.3753150712        0.6246849288
Li               0.1250263556        0.8749736444        0.1250263556
Li               0.1248335824        0.8751664176        0.6249631927
Li               0.6246849289        0.3753150712        0.1242997599
Li               0.6297252507        0.3702747500        0.6297252508
Li               0.6249631926        0.8751664176        0.1248335824
Li               0.6246849287        0.8757002410        0.6246849287
Li               0.3750368073        0.1248335824        0.1248335825
Li               0.3753150712        0.1242997596        0.6246849289
Li               0.3753150712        0.6246849288        0.1242997592
Li               0.3702747507        0.6297252500        0.6297252497
Li               0.8749736444        0.1250263555        0.1250263556
Li               0.8751664176        0.1248335825        0.6249631926
Li               0.8751664176        0.6249631926        0.1248335825
Li               0.8757002413        0.6246849287        0.6246849287
Li               0.3702747483        0.3702747487        0.3702747484
Li               0.3753150712        0.3753150711        0.8757002401
Li               0.3753150712        0.8757002405        0.3753150712
Li               0.3750368074        0.8751664175        0.8751664175
Li               0.8757002400        0.3753150712        0.3753150711
Li               0.8751664176        0.3750368073        0.8751664176
Li               0.8751664176        0.8751664176        0.3750368073
Li               0.8749736445        0.8749736444        0.8749736444
Li               0.3753150713        0.3753150713        0.1242997588
Li               0.3702747501        0.3702747498        0.6297252494
Li               0.3750368073        0.8751664176        0.1248335823
Li               0.3753150711        0.8757002403        0.6246849289
Li               0.8751664175        0.3750368073        0.1248335825
Li               0.8757002407        0.3753150712        0.6246849288
Li               0.8749736445        0.8749736444        0.1250263556
Li               0.8751664176        0.8751664176        0.6249631927
Li               0.3753150713        0.1242997590        0.3753150714
Li               0.3750368073        0.1248335824        0.8751664176
Li               0.3702747492        0.6297252501        0.3702747492
Li               0.3753150712        0.6246849288        0.8757002401
Li               0.8751664175        0.1248335825        0.3750368073
Li               0.8749736445        0.1250263556        0.8749736444
Li               0.8757002402        0.6246849288        0.3753150712
Li               0.8751664177        0.6249631927        0.8751664176
Li               0.1242997588        0.3753150713        0.3753150713
Li               0.1248335824        0.3750368074        0.8751664175
Li               0.1248335824        0.8751664176        0.3750368073
Li               0.1250263556        0.8749736444        0.8749736444
Li               0.6297252493        0.3702747500        0.3702747503
Li               0.6246849288        0.3753150711        0.8757002408
Li               0.6246849288        0.8757002404        0.3753150711
Li               0.6249631927        0.8751664175        0.8751664176
Li               0.1250263556        0.1250263555        0.1250263556
Li               0.1248335825        0.1248335825        0.6249631926
Li               0.1248335824        0.6249631926        0.1248335824
Li               0.1242997600        0.6246849289        0.6246849288
Li               0.6249631926        0.1248335824        0.1248335825
Li               0.6246849288        0.1242997595        0.6246849288
Li               0.6246849288        0.6246849289        0.1242997599
Li               0.6297252517        0.6297252513        0.6297252517
End final coordinates



     Writing all to output data dir ./outdir/Li2O.save/ :
     XML data file     Writing meta-gga kinetic term
, charge density, pseudopotentials, collected wavefunctions
 
     init_run     :      4.04s CPU      5.51s WALL (       1 calls)
     electrons    :   1200.14s CPU   1423.71s WALL (      11 calls)
     update_pot   :      5.58s CPU      5.68s WALL (      10 calls)
     forces       :      3.05s CPU      3.15s WALL (      11 calls)

     Called by init_run:
     wfcinit      :      3.34s CPU      4.39s WALL (       1 calls)
     potinit      :      0.40s CPU      0.49s WALL (       1 calls)
     hinit0       :      0.12s CPU      0.15s WALL (       1 calls)

     Called by electrons:
     c_bands      :    933.13s CPU   1123.41s WALL (     115 calls)
     sum_band     :    215.26s CPU    241.31s WALL (     115 calls)
     v_of_rho     :     44.29s CPU     45.37s WALL (     124 calls)
     mix_rho      :      7.20s CPU      7.92s WALL (     115 calls)

     Called by c_bands:
     init_us_2    :      1.59s CPU      1.60s WALL (     484 calls)
     cegterg      :    819.77s CPU   1009.56s WALL (     230 calls)

     Called by *egterg:
     cdiaghg      :      4.34s CPU      4.48s WALL (     649 calls)
                                        4.47s GPU  (     649 calls)
     h_psi        :    809.16s CPU    999.39s WALL (     675 calls)
                                      999.33s GPU  (     675 calls)
     g_psi        :      0.00s CPU      0.16s WALL (     443 calls)
                                        0.16s GPU  (     443 calls)

     Called by h_psi:
     h_psi:calbec :      4.13s CPU      4.40s WALL (     675 calls)
                                        4.40s GPU  (     675 calls)
     vloc_psi     :     43.50s CPU     94.27s WALL (     675 calls)
                                       94.27s GPU  (     675 calls)
     add_vuspsi   :      1.05s CPU      3.47s WALL (     675 calls)
                                        3.46s GPU  (     675 calls)
     h_psi_meta   :    730.34s CPU    814.74s WALL (     675 calls)

     General routines
     calbec       :      4.81s CPU      5.10s WALL (     763 calls)
     fft          :      3.75s CPU      4.98s WALL (    1481 calls)
                                        4.97s GPU  (    1481 calls)
     ffts         :      0.53s CPU      0.74s WALL (     230 calls)
                                        0.74s GPU  (     230 calls)
     fftw         :    629.00s CPU    801.64s WALL (  911988 calls)
                                      793.59s GPU  (  911988 calls)
     interpolate  :      0.08s CPU      0.08s WALL (     124 calls)
 
     Parallel routines
 
     PWSCF        :  20m15.03s CPU  24m11.87s WALL

 
   This run was terminated on:  14:57:40   6Jun2025            

=------------------------------------------------------------------------------=
   JOB DONE.
=------------------------------------------------------------------------------=
