
     Program PWSCF v.7.1 starts on 18Oct2024 at 21: 3:31 

     This program is part of the open-source Quantum ESPRESSO suite
     for quantum simulation of materials; please cite
         "P. Giannozzi et al., J. Phys.:Condens. Matter 21 395502 (2009);
         "P. Giannozzi et al., J. Phys.:Condens. Matter 29 465901 (2017);
         "P. Giannozzi et al., J. Chem. Phys. 152 154105 (2020);
          URL http://www.quantum-espresso.org", 
     in publications or presentations arising from this work. More details at
     http://www.quantum-espresso.org/quote

     Parallel version (MPI & OpenMP), running on     128 processor cores
     Number of MPI processes:               128
     Threads/MPI process:                     1

     MPI processes distributed on     1 nodes
     479294 MiB available memory on the printing compute node when the environment starts

     Reading input from qe_Pt3Ni.in

     Current dimensions of program PWSCF are:
     Max number of different atomic species (ntypx) = 10
     Max number of k-points (npk) =  40000
     Max angular momentum in pseudopotentials (lmaxx) =  4

     gamma-point specific algorithms are used

     R & G space division:  proc/nbgrp/npool/nimage =     128
     Subspace diagonalization in iterative solution of the eigenvalue problem:
     a serial algorithm will be used


     Parallelization info
     --------------------
     sticks:   dense  smooth     PW     G-vecs:    dense   smooth      PW
     Min        1610    1610    401               550538   550538   68809
     Max        1612    1612    404               550564   550564   68828
     Sum      206285  206285  51577             70470853 70470853 8808945

     Using Slab Decomposition



     bravais-lattice index     =            1
     lattice parameter (alat)  =      60.0000  a.u.
     unit-cell volume          =  216000.0000 (a.u.)^3
     number of atoms/cell      =            4
     number of atomic types    =            2
     number of electrons       =        72.00
     number of Kohn-Sham states=           80
     kinetic-energy cutoff     =     180.0000  Ry
     charge density cutoff     =     720.0000  Ry
     scf convergence threshold =      1.0E-06
     mixing beta               =       0.1000
     number of iterations used =            8  plain     mixing
     Exchange-correlation= PBE
                           (   1   4   3   4   0   0   0)
     Hubbard projectors: atomic
     Hubbard parameters of DFT+U (Dudarev formulation) in eV:
     U(Ni-3d) =  1.0000
     U(Pt-5d) =  3.0000

     Internal variables: lda_plus_u =T, lda_plus_u_kind = 0

     celldm(1)=  60.000000  celldm(2)=   0.000000  celldm(3)=   0.000000
     celldm(4)=   0.000000  celldm(5)=   0.000000  celldm(6)=   0.000000

     crystal axes: (cart. coord. in units of alat)
               a(1) = (   1.000000   0.000000   0.000000 )  
               a(2) = (   0.000000   1.000000   0.000000 )  
               a(3) = (   0.000000   0.000000   1.000000 )  

     reciprocal axes: (cart. coord. in units 2 pi/alat)
               b(1) = (  1.000000  0.000000  0.000000 )  
               b(2) = (  0.000000  1.000000  0.000000 )  
               b(3) = (  0.000000  0.000000  1.000000 )  


     PseudoPot. # 1 for Ni read from file:
     ./Ni.upf
     MD5 check sum: 2b0a79d100e227970886d6963e34175b
     Pseudo is Norm-conserving + core correction, Zval = 18.0
     Generated using ONCVPSP code by D. R. Hamann
     Using radial grid of 1372 points,  6 beta functions with: 
                l(1) =   0
                l(2) =   0
                l(3) =   1
                l(4) =   1
                l(5) =   2
                l(6) =   2

     PseudoPot. # 2 for Pt read from file:
     ./Pt.upf
     MD5 check sum: 3caa314b32314335c676ebce8d0bd64e
     Pseudo is Norm-conserving + core correction, Zval = 18.0
     Generated using ONCVPSP code by D. R. Hamann
     Using radial grid of 1374 points,  8 beta functions with: 
                l(1) =   0
                l(2) =   0
                l(3) =   1
                l(4) =   1
                l(5) =   2
                l(6) =   2
                l(7) =   3
                l(8) =   3

     atomic species   valence    mass     pseudopotential
        Ni            18.00    58.00000     Ni( 1.00)
        Pt            18.00   195.00000     Pt( 1.00)

     Starting magnetic structure 
     atomic species   magnetization
        Ni           0.200
        Pt           0.200

      6 Sym. Ops. (no inversion) found


                                    s                        frac. trans.

      isym =  1     identity                                     

 cryst.   s( 1) = (     1          0          0      )
                  (     0          1          0      )
                  (     0          0          1      )

 cart.    s( 1) = (  1.0000000  0.0000000  0.0000000 )
                  (  0.0000000  1.0000000  0.0000000 )
                  (  0.0000000  0.0000000  1.0000000 )


      isym =  2     120 deg rotation - cart. axis [-1,-1,-1]     

 cryst.   s( 2) = (     0          0          1      )
                  (     1          0          0      )
                  (     0          1          0      )

 cart.    s( 2) = (  0.0000000  1.0000000  0.0000000 )
                  (  0.0000000  0.0000000  1.0000000 )
                  (  1.0000000  0.0000000  0.0000000 )


      isym =  3     120 deg rotation - cart. axis [1,1,1]        

 cryst.   s( 3) = (     0          1          0      )
                  (     0          0          1      )
                  (     1          0          0      )

 cart.    s( 3) = (  0.0000000  0.0000000  1.0000000 )
                  (  1.0000000  0.0000000  0.0000000 )
                  (  0.0000000  1.0000000  0.0000000 )


      isym =  4     inv. 180 deg rotation - cart. axis [1,-1,0]  

 cryst.   s( 4) = (     0          1          0      )
                  (     1          0          0      )
                  (     0          0          1      )

 cart.    s( 4) = (  0.0000000  1.0000000  0.0000000 )
                  (  1.0000000  0.0000000  0.0000000 )
                  (  0.0000000  0.0000000  1.0000000 )


      isym =  5     inv. 180 deg rotation - cart. axis [-1,0,1]  

 cryst.   s( 5) = (     0          0          1      )
                  (     0          1          0      )
                  (     1          0          0      )

 cart.    s( 5) = (  0.0000000  0.0000000  1.0000000 )
                  (  0.0000000  1.0000000  0.0000000 )
                  (  1.0000000  0.0000000  0.0000000 )


      isym =  6     inv. 180 deg rotation - cart. axis [0,1,-1]  

 cryst.   s( 6) = (     1          0          0      )
                  (     0          0          1      )
                  (     0          1          0      )

 cart.    s( 6) = (  1.0000000  0.0000000  0.0000000 )
                  (  0.0000000  0.0000000  1.0000000 )
                  (  0.0000000  1.0000000  0.0000000 )


     point group C_3v (3m)  
     there are  3 classes
     the character table:

       E     2C3   3s_v 
A_1    1.00  1.00  1.00
A_2    1.00  1.00 -1.00
E      2.00 -1.00  0.00

     the symmetry operations in each class and the name of the first element:

     E        1
          identity                                               
     2C3      2    3
          120 deg rotation - cart. axis [-1,-1,-1]               
     3s_v     4    5    6
          inv. 180 deg rotation - cart. axis [1,-1,0]            

   Cartesian axes

     site n.     atom                  positions (alat units)
         1           Ni  tau(   1) = (   0.0000000   0.0000000   0.0000000  )
         2           Pt  tau(   2) = (   0.0600000   0.0600000   0.0000000  )
         3           Pt  tau(   3) = (   0.0000000   0.0600000   0.0600000  )
         4           Pt  tau(   4) = (   0.0600000   0.0000000   0.0600000  )

   Crystallographic axes

     site n.     atom                  positions (cryst. coord.)
         1           Ni  tau(   1) = (  0.0000000  0.0000000  0.0000000  )
         2           Pt  tau(   2) = (  0.0600000  0.0600000  0.0000000  )
         3           Pt  tau(   3) = (  0.0000000  0.0600000  0.0600000  )
         4           Pt  tau(   4) = (  0.0600000  0.0000000  0.0600000  )

     number of k points=     1  Fermi-Dirac smearing, width (Ry)=  0.0127
                       cart. coord. in units 2pi/alat
        k(    1) = (   0.0000000   0.0000000   0.0000000), wk =   1.0000000

                       cryst. coord.
        k(    1) = (   0.0000000   0.0000000   0.0000000), wk =   1.0000000

     Dense  grid: 35235427 G-vectors     FFT dimensions: ( 540, 540, 540)

     Dynamical RAM for                 wfc:      42.00 MB

     Dynamical RAM for     wfc (w. buffer):     126.01 MB

     Dynamical RAM for             U proj.:      10.50 MB

     Dynamical RAM for  U proj. (w. buff.):      31.50 MB

     Dynamical RAM for           str. fact:       8.40 MB

     Dynamical RAM for           local pot:       0.00 MB

     Dynamical RAM for          nlocal pot:      59.85 MB

     Dynamical RAM for                qrad:      10.33 MB

     Dynamical RAM for          rho,v,vnew:      91.94 MB

     Dynamical RAM for               rhoin:      30.65 MB

     Dynamical RAM for            rho*nmix:     134.42 MB

     Dynamical RAM for           G-vectors:      17.85 MB

     Dynamical RAM for          h,s,v(r/c):       0.59 MB

     Dynamical RAM for          <psi|beta>:       0.07 MB

     Dynamical RAM for                 psi:      84.00 MB

     Dynamical RAM for                hpsi:      84.00 MB

     Dynamical RAM for      wfcinit/wfcrot:      84.15 MB

     Estimated static dynamical RAM per process >     455.88 MB

     Estimated max dynamical RAM per process >     758.96 MB

     Estimated total dynamical RAM >      94.87 GB
     Generating pointlists ...
     new r_m :   0.0350 (alat units)  2.1001 (a.u.) for type    1
     new r_m :   0.0350 (alat units)  2.1001 (a.u.) for type    2

     Initial potential from superposition of free atoms

     starting charge      71.9993, renormalised to      72.0000

     negative rho (up, down):  1.027E-04 6.846E-05

     HUBBARD ENERGY =    0.3087  (Ry)

     STARTING HUBBARD OCCUPATIONS:

     =================== HUBBARD OCCUPATIONS ===================
     ------------------------ ATOM    1 ------------------------
     Tr[ns(  1)] (up, down, total) =   5.00000  3.00000  8.00000
     Atomic magnetic moment for atom   1 =   2.00000
     SPIN  1
     eigenvalues:
       1.000  1.000  1.000  1.000  1.000
     eigenvectors (columns):
       1.000  0.000  0.000  0.000  0.000
       0.000  1.000  0.000  0.000  0.000
       0.000  0.000  1.000  0.000  0.000
       0.000  0.000  0.000  1.000  0.000
       0.000  0.000  0.000  0.000  1.000
     occupation matrix ns (before diag.):
       1.000  0.000  0.000  0.000  0.000
       0.000  1.000  0.000  0.000  0.000
       0.000  0.000  1.000  0.000  0.000
       0.000  0.000  0.000  1.000  0.000
       0.000  0.000  0.000  0.000  1.000
     SPIN  2
     eigenvalues:
       0.600  0.600  0.600  0.600  0.600
     eigenvectors (columns):
       1.000  0.000  0.000  0.000  0.000
       0.000  1.000  0.000  0.000  0.000
       0.000  0.000  1.000  0.000  0.000
       0.000  0.000  0.000  1.000  0.000
       0.000  0.000  0.000  0.000  1.000
     occupation matrix ns (before diag.):
       0.600  0.000  0.000  0.000  0.000
       0.000  0.600  0.000  0.000  0.000
       0.000  0.000  0.600  0.000  0.000
       0.000  0.000  0.000  0.600  0.000
       0.000  0.000  0.000  0.000  0.600
     ------------------------ ATOM    2 ------------------------
     Tr[ns(  2)] (up, down, total) =   5.00000  4.00000  9.00000
     Atomic magnetic moment for atom   2 =   1.00000
     SPIN  1
     eigenvalues:
       1.000  1.000  1.000  1.000  1.000
     eigenvectors (columns):
       1.000  0.000  0.000  0.000  0.000
       0.000  1.000  0.000  0.000  0.000
       0.000  0.000  1.000  0.000  0.000
       0.000  0.000  0.000  1.000  0.000
       0.000  0.000  0.000  0.000  1.000
     occupation matrix ns (before diag.):
       1.000  0.000  0.000  0.000  0.000
       0.000  1.000  0.000  0.000  0.000
       0.000  0.000  1.000  0.000  0.000
       0.000  0.000  0.000  1.000  0.000
       0.000  0.000  0.000  0.000  1.000
     SPIN  2
     eigenvalues:
       0.800  0.800  0.800  0.800  0.800
     eigenvectors (columns):
       1.000  0.000  0.000  0.000  0.000
       0.000  1.000  0.000  0.000  0.000
       0.000  0.000  1.000  0.000  0.000
       0.000  0.000  0.000  1.000  0.000
       0.000  0.000  0.000  0.000  1.000
     occupation matrix ns (before diag.):
       0.800  0.000  0.000  0.000  0.000
       0.000  0.800  0.000  0.000  0.000
       0.000  0.000  0.800  0.000  0.000
       0.000  0.000  0.000  0.800  0.000
       0.000  0.000  0.000  0.000  0.800
     ------------------------ ATOM    3 ------------------------
     Tr[ns(  3)] (up, down, total) =   5.00000  4.00000  9.00000
     Atomic magnetic moment for atom   3 =   1.00000
     SPIN  1
     eigenvalues:
       1.000  1.000  1.000  1.000  1.000
     eigenvectors (columns):
       1.000  0.000  0.000  0.000  0.000
       0.000  1.000  0.000  0.000  0.000
       0.000  0.000  1.000  0.000  0.000
       0.000  0.000  0.000  1.000  0.000
       0.000  0.000  0.000  0.000  1.000
     occupation matrix ns (before diag.):
       1.000  0.000  0.000  0.000  0.000
       0.000  1.000  0.000  0.000  0.000
       0.000  0.000  1.000  0.000  0.000
       0.000  0.000  0.000  1.000  0.000
       0.000  0.000  0.000  0.000  1.000
     SPIN  2
     eigenvalues:
       0.800  0.800  0.800  0.800  0.800
     eigenvectors (columns):
       1.000  0.000  0.000  0.000  0.000
       0.000  1.000  0.000  0.000  0.000
       0.000  0.000  1.000  0.000  0.000
       0.000  0.000  0.000  1.000  0.000
       0.000  0.000  0.000  0.000  1.000
     occupation matrix ns (before diag.):
       0.800  0.000  0.000  0.000  0.000
       0.000  0.800  0.000  0.000  0.000
       0.000  0.000  0.800  0.000  0.000
       0.000  0.000  0.000  0.800  0.000
       0.000  0.000  0.000  0.000  0.800
     ------------------------ ATOM    4 ------------------------
     Tr[ns(  4)] (up, down, total) =   5.00000  4.00000  9.00000
     Atomic magnetic moment for atom   4 =   1.00000
     SPIN  1
     eigenvalues:
       1.000  1.000  1.000  1.000  1.000
     eigenvectors (columns):
       1.000  0.000  0.000  0.000  0.000
       0.000  1.000  0.000  0.000  0.000
       0.000  0.000  1.000  0.000  0.000
       0.000  0.000  0.000  1.000  0.000
       0.000  0.000  0.000  0.000  1.000
     occupation matrix ns (before diag.):
       1.000  0.000  0.000  0.000  0.000
       0.000  1.000  0.000  0.000  0.000
       0.000  0.000  1.000  0.000  0.000
       0.000  0.000  0.000  1.000  0.000
       0.000  0.000  0.000  0.000  1.000
     SPIN  2
     eigenvalues:
       0.800  0.800  0.800  0.800  0.800
     eigenvectors (columns):
       1.000  0.000  0.000  0.000  0.000
       0.000  1.000  0.000  0.000  0.000
       0.000  0.000  1.000  0.000  0.000
       0.000  0.000  0.000  1.000  0.000
       0.000  0.000  0.000  0.000  1.000
     occupation matrix ns (before diag.):
       0.800  0.000  0.000  0.000  0.000
       0.000  0.800  0.000  0.000  0.000
       0.000  0.000  0.800  0.000  0.000
       0.000  0.000  0.000  0.800  0.000
       0.000  0.000  0.000  0.000  0.800

     Number of occupied Hubbard levels =   35.0000

     Atomic wfc used for Hubbard projectors are NOT orthogonalized

     Starting wfcs are random

     total cpu time spent up to now is       86.5 secs

     Self-consistent Calculation

     iteration #  1     ecut=   180.00 Ry     beta= 0.10
     Davidson diagonalization with overlap

---- Real-time Memory Report at c_bands before calling an iterative solver
           592 MiB given to the printing process from OS
             0 MiB allocation reported by mallinfo(arena+hblkhd)
        421340 MiB available memory on the node where the printing process lives
------------------
     ethr =  1.00E-02,  avg # of iterations = 18.0

     =================== HUBBARD OCCUPATIONS ===================
     ------------------------ ATOM    1 ------------------------
     Tr[ns(  1)] (up, down, total) =   4.99371  4.93631  9.93002
     Atomic magnetic moment for atom   1 =   0.05740
     SPIN  1
     eigenvalues:
       0.998  0.998  0.999  0.999  0.999
     eigenvectors (columns):
      -0.496 -0.212  0.000 -0.308 -0.784
       0.083  0.683  0.577 -0.435 -0.066
       0.550 -0.413  0.577  0.275 -0.344
       0.212 -0.496 -0.000 -0.784  0.308
       0.632  0.270 -0.577 -0.161 -0.410
     occupation matrix ns (before diag.):
       0.999  0.000  0.000  0.000  0.001
       0.000  0.999  0.000  0.001 -0.000
       0.000  0.000  0.999 -0.001 -0.000
       0.000  0.001 -0.001  0.999 -0.000
       0.001 -0.000 -0.000 -0.000  0.999
     SPIN  2
     eigenvalues:
       0.975  0.975  0.993  0.997  0.997
     eigenvectors (columns):
       0.484  0.149  0.000 -0.295 -0.810
      -0.157 -0.686  0.577 -0.408 -0.072
      -0.516  0.479  0.577  0.266 -0.317
      -0.149  0.484 -0.000 -0.810  0.295
      -0.673 -0.207 -0.577 -0.142 -0.389
     occupation matrix ns (before diag.):
       0.991  0.004  0.004  0.000  0.008
       0.004  0.985  0.004  0.007 -0.004
       0.004  0.004  0.985 -0.007 -0.004
       0.000  0.007 -0.007  0.991 -0.000
       0.008 -0.004 -0.004 -0.000  0.985
     ------------------------ ATOM    2 ------------------------
     Tr[ns(  2)] (up, down, total) =   4.92552  4.19703  9.12254
     Atomic magnetic moment for atom   2 =   0.72849
     SPIN  1
     eigenvalues:
       0.968  0.971  0.990  0.998  0.998
     eigenvectors (columns):
      -0.529  0.000 -0.223 -0.000  0.819
      -0.507  0.519  0.448  0.480 -0.205
      -0.507 -0.519  0.448 -0.480 -0.205
       0.000  0.679  0.000 -0.734 -0.000
       0.454 -0.000  0.741 -0.000  0.495
     occupation matrix ns (before diag.):
       0.989 -0.007 -0.007  0.000  0.008
      -0.007  0.982 -0.002 -0.009  0.004
      -0.007 -0.002  0.982  0.009  0.004
       0.000 -0.009  0.009  0.985 -0.000
       0.008  0.004  0.004 -0.000  0.988
     SPIN  2
     eigenvalues:
       0.660  0.813  0.884  0.909  0.932
     eigenvectors (columns):
       0.000 -0.899 -0.147  0.000  0.412
      -0.579 -0.109 -0.548 -0.406 -0.433
       0.579 -0.109 -0.548  0.406 -0.433
      -0.575  0.000 -0.000  0.818 -0.000
      -0.000  0.410 -0.614  0.000  0.674
     occupation matrix ns (before diag.):
       0.835 -0.016 -0.016  0.000  0.039
      -0.016  0.821  0.079 -0.083 -0.011
      -0.016  0.079  0.821  0.083 -0.011
       0.000 -0.083  0.083  0.827 -0.000
       0.039 -0.011 -0.011 -0.000  0.894
     ------------------------ ATOM    3 ------------------------
     Tr[ns(  3)] (up, down, total) =   4.92552  4.19703  9.12254
     Atomic magnetic moment for atom   3 =   0.72849
     SPIN  1
     eigenvalues:
       0.968  0.971  0.990  0.998  0.998
     eigenvectors (columns):
      -0.264  0.588 -0.112  0.636  0.409
       0.507  0.519 -0.448 -0.480  0.205
       0.454 -0.000  0.741  0.000  0.495
       0.458  0.339  0.194  0.367 -0.709
      -0.507  0.519  0.448 -0.480 -0.205
     occupation matrix ns (before diag.):
       0.986 -0.005  0.004 -0.002 -0.012
      -0.005  0.982 -0.004 -0.011  0.002
       0.004 -0.004  0.988 -0.007  0.004
      -0.002 -0.011 -0.007  0.988  0.001
      -0.012  0.002  0.004  0.001  0.982
     SPIN  2
     eigenvalues:
       0.660  0.813  0.884  0.909  0.932
     eigenvectors (columns):
      -0.498 -0.450  0.073 -0.709 -0.206
      -0.579  0.109 -0.548  0.406 -0.433
       0.000  0.410  0.614 -0.000 -0.674
      -0.287  0.779 -0.127 -0.409  0.357
      -0.579 -0.109  0.548  0.406  0.433
     occupation matrix ns (before diag.):
       0.829 -0.064  0.020 -0.003 -0.079
      -0.064  0.821  0.011 -0.055 -0.079
       0.020  0.011  0.894 -0.034 -0.011
      -0.003 -0.055 -0.034  0.833 -0.028
      -0.079 -0.079 -0.011 -0.028  0.821
     ------------------------ ATOM    4 ------------------------
     Tr[ns(  4)] (up, down, total) =   4.92552  4.19703  9.12254
     Atomic magnetic moment for atom   4 =   0.72849
     SPIN  1
     eigenvalues:
       0.968  0.971  0.990  0.998  0.998
     eigenvectors (columns):
      -0.264  0.588 -0.112  0.636  0.409
       0.454 -0.000  0.741  0.000  0.495
       0.507  0.519 -0.448 -0.480  0.205
      -0.458 -0.339 -0.194 -0.367  0.709
      -0.507  0.519  0.448 -0.480 -0.205
     occupation matrix ns (before diag.):
       0.986  0.004 -0.005  0.002 -0.012
       0.004  0.988 -0.004  0.007  0.004
      -0.005 -0.004  0.982  0.011  0.002
       0.002  0.007  0.011  0.988 -0.001
      -0.012  0.004  0.002 -0.001  0.982
     SPIN  2
     eigenvalues:
       0.660  0.813  0.884  0.909  0.932
     eigenvectors (columns):
       0.498  0.450 -0.073 -0.709  0.206
       0.000 -0.410 -0.614 -0.000  0.674
       0.579 -0.109  0.548  0.406  0.433
      -0.287  0.779 -0.127  0.409  0.357
       0.579  0.109 -0.548  0.406 -0.433
     occupation matrix ns (before diag.):
       0.829  0.020 -0.064  0.003 -0.079
       0.020  0.894  0.011  0.034 -0.011
      -0.064  0.011  0.821  0.055 -0.079
       0.003  0.034  0.055  0.833  0.028
      -0.079 -0.011 -0.079  0.028  0.821

     Number of occupied Hubbard levels =   37.2976

     negative rho (up, down):  6.574E-05 1.552E-05

     HUBBARD ENERGY =    0.2335  (Ry)

     total cpu time spent up to now is      626.1 secs

     total energy              =   -1117.73883469 Ry
     estimated scf accuracy    <       2.63850466 Ry

     total magnetization       =     2.30 Bohr mag/cell
     absolute magnetization    =     3.20 Bohr mag/cell

     iteration #  2     ecut=   180.00 Ry     beta= 0.10
     Davidson diagonalization with overlap

---- Real-time Memory Report at c_bands before calling an iterative solver
           905 MiB given to the printing process from OS
             0 MiB allocation reported by mallinfo(arena+hblkhd)
        398756 MiB available memory on the node where the printing process lives
------------------
     ethr =  3.66E-03,  avg # of iterations =  1.0

     =================== HUBBARD OCCUPATIONS ===================
     ------------------------ ATOM    1 ------------------------
     Tr[ns(  1)] (up, down, total) =   4.97861  3.32708  8.30568
     Atomic magnetic moment for atom   1 =   1.65153
     SPIN  1
     eigenvalues:
       0.993  0.993  0.996  0.999  0.999
     eigenvectors (columns):
       0.550  0.280 -0.000 -0.355 -0.702
      -0.034 -0.642  0.577 -0.503 -0.028
      -0.539  0.350  0.577  0.276 -0.422
      -0.280  0.550 -0.000 -0.702  0.355
      -0.573 -0.291 -0.577 -0.227 -0.449
     occupation matrix ns (before diag.):
       0.996  0.001  0.001  0.000  0.002
       0.001  0.995  0.000  0.002 -0.000
       0.001  0.000  0.995 -0.002 -0.000
       0.000  0.002 -0.002  0.996 -0.000
       0.002 -0.000 -0.000 -0.000  0.995
     SPIN  2
     eigenvalues:
       0.516  0.516  0.763  0.763  0.770
     eigenvectors (columns):
       0.532  0.245 -0.379 -0.716  0.000
      -0.061 -0.659 -0.478 -0.017 -0.577
      -0.540  0.382  0.254 -0.405 -0.577
      -0.245  0.532 -0.716  0.379 -0.000
      -0.601 -0.277 -0.224 -0.423  0.577
     occupation matrix ns (before diag.):
       0.678  0.048  0.048  0.000  0.096
       0.048  0.657  0.057  0.083 -0.057
       0.048  0.057  0.657 -0.083 -0.057
       0.000  0.083 -0.083  0.678 -0.000
       0.096 -0.057 -0.057 -0.000  0.657
     ------------------------ ATOM    2 ------------------------
     Tr[ns(  2)] (up, down, total) =   4.95785  4.50909  9.46694
     Atomic magnetic moment for atom   2 =   0.44876
     SPIN  1
     eigenvalues:
       0.984  0.984  0.993  0.998  0.998
     eigenvectors (columns):
       0.000 -0.590  0.125  0.798 -0.000
      -0.552 -0.426 -0.513 -0.234 -0.442
       0.552 -0.426 -0.513 -0.234  0.442
      -0.626 -0.000 -0.000  0.000  0.780
      -0.000  0.538 -0.676  0.504 -0.000
     occupation matrix ns (before diag.):
       0.993 -0.003 -0.003  0.000  0.005
      -0.003  0.990  0.000 -0.005  0.002
      -0.003  0.000  0.990  0.005  0.002
       0.000 -0.005  0.005  0.993 -0.000
       0.005  0.002  0.002 -0.000  0.992
     SPIN  2
     eigenvalues:
       0.681  0.872  0.972  0.990  0.994
     eigenvectors (columns):
      -0.000 -0.612  0.105 -0.000  0.784
       0.579 -0.358 -0.575  0.406 -0.203
      -0.579 -0.358 -0.575 -0.406 -0.203
       0.575  0.000 -0.000 -0.818 -0.000
       0.000  0.607 -0.573 -0.000  0.551
     occupation matrix ns (before diag.):
       0.948 -0.025 -0.025  0.000  0.047
      -0.025  0.866  0.082 -0.103  0.019
      -0.025  0.082  0.866  0.103  0.019
       0.000 -0.103  0.103  0.888 -0.000
       0.047  0.019  0.019 -0.000  0.942
     ------------------------ ATOM    3 ------------------------
     Tr[ns(  3)] (up, down, total) =   4.95785  4.50909  9.46694
     Atomic magnetic moment for atom   3 =   0.44876
     SPIN  1
     eigenvalues:
       0.984  0.984  0.993  0.998  0.998
     eigenvectors (columns):
      -0.542  0.295  0.063  0.399  0.676
      -0.552 -0.426  0.513  0.234 -0.442
      -0.000 -0.538 -0.676  0.504 -0.000
      -0.313 -0.511 -0.108 -0.691  0.390
      -0.552  0.426 -0.513 -0.234 -0.442
     occupation matrix ns (before diag.):
       0.993 -0.003  0.003 -0.000 -0.006
      -0.003  0.990 -0.002 -0.005 -0.000
       0.003 -0.002  0.992 -0.004  0.002
      -0.000 -0.005 -0.004  0.993  0.000
      -0.006 -0.000  0.002  0.000  0.990
     SPIN  2
     eigenvalues:
       0.681  0.872  0.972  0.990  0.994
     eigenvectors (columns):
       0.498  0.306  0.053  0.709  0.392
       0.579 -0.358  0.575 -0.406  0.203
      -0.000 -0.607 -0.573  0.000  0.551
       0.287 -0.530 -0.091  0.409 -0.679
       0.579  0.358 -0.575 -0.406 -0.203
     occupation matrix ns (before diag.):
       0.903 -0.076  0.023 -0.026 -0.102
      -0.076  0.866 -0.019 -0.073 -0.082
       0.023 -0.019  0.942 -0.040  0.019
      -0.026 -0.073 -0.040  0.933 -0.029
      -0.102 -0.082  0.019 -0.029  0.866
     ------------------------ ATOM    4 ------------------------
     Tr[ns(  4)] (up, down, total) =   4.95785  4.50909  9.46694
     Atomic magnetic moment for atom   4 =   0.44876
     SPIN  1
     eigenvalues:
       0.984  0.984  0.993  0.998  0.998
     eigenvectors (columns):
      -0.542 -0.295 -0.063 -0.399 -0.676
      -0.000  0.538  0.676 -0.504  0.000
      -0.552  0.426 -0.513 -0.234  0.442
       0.313 -0.511 -0.108 -0.691  0.390
      -0.552 -0.426  0.513  0.234  0.442
     occupation matrix ns (before diag.):
       0.993  0.003 -0.003  0.000 -0.006
       0.003  0.992 -0.002  0.004  0.002
      -0.003 -0.002  0.990  0.005 -0.000
       0.000  0.004  0.005  0.993 -0.000
      -0.006  0.002 -0.000 -0.000  0.990
     SPIN  2
     eigenvalues:
       0.681  0.872  0.972  0.990  0.994
     eigenvectors (columns):
       0.498  0.306  0.053  0.709  0.392
       0.000 -0.607 -0.573  0.000  0.551
       0.579 -0.358  0.575 -0.406  0.203
      -0.287  0.530  0.091 -0.409  0.679
       0.579  0.358 -0.575 -0.406 -0.203
     occupation matrix ns (before diag.):
       0.903  0.023 -0.076  0.026 -0.102
       0.023  0.942 -0.019  0.040  0.019
      -0.076 -0.019  0.866  0.073 -0.082
       0.026  0.040  0.073  0.933  0.029
      -0.102  0.019 -0.082  0.029  0.866

     Number of occupied Hubbard levels =   36.7065

     negative rho (up, down):  5.505E-05 1.166E-05

     HUBBARD ENERGY =    0.2313  (Ry)

     total cpu time spent up to now is      716.3 secs

     total energy              =   -1117.87053463 Ry
     estimated scf accuracy    <       0.85340544 Ry

     total magnetization       =     3.74 Bohr mag/cell
     absolute magnetization    =     4.07 Bohr mag/cell

     iteration #  3     ecut=   180.00 Ry     beta= 0.10
     Davidson diagonalization with overlap

---- Real-time Memory Report at c_bands before calling an iterative solver
           923 MiB given to the printing process from OS
             0 MiB allocation reported by mallinfo(arena+hblkhd)
        396158 MiB available memory on the node where the printing process lives
------------------
     ethr =  1.19E-03,  avg # of iterations =  1.0

     =================== HUBBARD OCCUPATIONS ===================
     ------------------------ ATOM    1 ------------------------
     Tr[ns(  1)] (up, down, total) =   4.98549  4.36957  9.35506
     Atomic magnetic moment for atom   1 =   0.61592
     SPIN  1
     eigenvalues:
       0.995  0.995  0.998  0.999  0.999
     eigenvectors (columns):
      -0.541 -0.242 -0.000 -0.368 -0.717
       0.068  0.654  0.577 -0.483 -0.024
       0.533 -0.386  0.577  0.262 -0.406
       0.242 -0.541 -0.000 -0.717  0.368
       0.601  0.268 -0.577 -0.221 -0.430
     occupation matrix ns (before diag.):
       0.998  0.001  0.001  0.000  0.002
       0.001  0.997  0.000  0.002 -0.000
       0.001  0.000  0.997 -0.002 -0.000
       0.000  0.002 -0.002  0.998 -0.000
       0.002 -0.000 -0.000 -0.000  0.997
     SPIN  2
     eigenvalues:
       0.743  0.743  0.958  0.962  0.962
     eigenvectors (columns):
      -0.507 -0.206 -0.000 -0.313 -0.776
       0.094  0.677 -0.577 -0.443 -0.062
       0.539 -0.420 -0.577  0.275 -0.352
       0.206 -0.507  0.000 -0.776  0.313
       0.633  0.257  0.577 -0.167 -0.414
     occupation matrix ns (before diag.):
       0.897  0.041  0.041  0.000  0.082
       0.041  0.859  0.050  0.071 -0.050
       0.041  0.050  0.859 -0.071 -0.050
       0.000  0.071 -0.071  0.897 -0.000
       0.082 -0.050 -0.050 -0.000  0.859
     ------------------------ ATOM    2 ------------------------
     Tr[ns(  2)] (up, down, total) =   4.94127  4.39947  9.34074
     Atomic magnetic moment for atom   2 =   0.54180
     SPIN  1
     eigenvalues:
       0.976  0.977  0.992  0.998  0.998
     eigenvectors (columns):
      -0.000 -0.525 -0.205  0.826  0.000
       0.539 -0.503  0.451 -0.208  0.458
      -0.539 -0.503  0.451 -0.208 -0.458
       0.648 -0.000  0.000  0.000 -0.762
       0.000  0.467  0.742  0.480  0.000
     occupation matrix ns (before diag.):
       0.992 -0.005 -0.005  0.000  0.006
      -0.005  0.985 -0.000 -0.008  0.003
      -0.005 -0.000  0.985  0.008  0.003
       0.000 -0.008  0.008  0.989 -0.000
       0.006  0.003  0.003 -0.000  0.990
     SPIN  2
     eigenvalues:
       0.643  0.821  0.964  0.985  0.986
     eigenvectors (columns):
       0.000 -0.690  0.110  0.000  0.715
      -0.584 -0.286 -0.621 -0.399 -0.181
       0.584 -0.286 -0.621  0.399 -0.181
      -0.564  0.000  0.000  0.826 -0.000
      -0.000  0.600 -0.466  0.000  0.650
     occupation matrix ns (before diag.):
       0.907 -0.031 -0.031  0.000  0.069
      -0.031  0.847  0.095 -0.112  0.022
      -0.031  0.095  0.847  0.112  0.022
       0.000 -0.112  0.112  0.876 -0.000
       0.069  0.022  0.022 -0.000  0.922
     ------------------------ ATOM    3 ------------------------
     Tr[ns(  3)] (up, down, total) =   4.94127  4.39947  9.34074
     Atomic magnetic moment for atom   3 =   0.54180
     SPIN  1
     eigenvalues:
       0.976  0.977  0.992  0.998  0.998
     eigenvectors (columns):
      -0.561 -0.262  0.102  0.413  0.660
      -0.539  0.503  0.451  0.208 -0.458
       0.000  0.467 -0.742  0.480 -0.000
      -0.324  0.454 -0.177 -0.716  0.381
      -0.539 -0.503 -0.451 -0.208 -0.458
     occupation matrix ns (before diag.):
       0.990 -0.004  0.003 -0.001 -0.009
      -0.004  0.985 -0.003 -0.008  0.000
       0.003 -0.003  0.990 -0.005  0.003
      -0.001 -0.008 -0.005  0.991  0.001
      -0.009  0.000  0.003  0.001  0.985
     SPIN  2
     eigenvalues:
       0.643  0.821  0.964  0.985  0.986
     eigenvectors (columns):
       0.489  0.345  0.055  0.715  0.358
       0.584 -0.286  0.621 -0.399  0.181
      -0.000 -0.600 -0.466  0.000  0.650
       0.282 -0.598 -0.095  0.413 -0.619
       0.584  0.286 -0.621 -0.399 -0.181
     occupation matrix ns (before diag.):
       0.884 -0.082  0.035 -0.013 -0.113
      -0.082  0.847 -0.022 -0.083 -0.095
       0.035 -0.022  0.922 -0.060  0.022
      -0.013 -0.083 -0.060  0.899 -0.029
      -0.113 -0.095  0.022 -0.029  0.847
     ------------------------ ATOM    4 ------------------------
     Tr[ns(  4)] (up, down, total) =   4.94127  4.39947  9.34074
     Atomic magnetic moment for atom   4 =   0.54180
     SPIN  1
     eigenvalues:
       0.976  0.977  0.992  0.998  0.998
     eigenvectors (columns):
      -0.561 -0.262  0.102  0.413  0.660
      -0.000  0.467 -0.742  0.480 -0.000
      -0.539  0.503  0.451  0.208 -0.458
       0.324 -0.454  0.177  0.716 -0.381
      -0.539 -0.503 -0.451 -0.208 -0.458
     occupation matrix ns (before diag.):
       0.990  0.003 -0.004  0.001 -0.009
       0.003  0.990 -0.003  0.005  0.003
      -0.004 -0.003  0.985  0.008  0.000
       0.001  0.005  0.008  0.991 -0.001
      -0.009  0.003  0.000 -0.001  0.985
     SPIN  2
     eigenvalues:
       0.643  0.821  0.964  0.985  0.986
     eigenvectors (columns):
       0.489  0.345  0.055  0.715  0.358
       0.000 -0.600 -0.466  0.000  0.650
       0.584 -0.286  0.621 -0.399  0.181
      -0.282  0.598  0.095 -0.413  0.619
       0.584  0.286 -0.621 -0.399 -0.181
     occupation matrix ns (before diag.):
       0.884  0.035 -0.082  0.013 -0.113
       0.035  0.922 -0.022  0.060  0.022
      -0.082 -0.022  0.847  0.083 -0.095
       0.013  0.060  0.083  0.899  0.029
      -0.113  0.022 -0.095  0.029  0.847

     Number of occupied Hubbard levels =   37.3773

     negative rho (up, down):  2.095E-05 2.293E-06

     HUBBARD ENERGY =    0.2106  (Ry)

     total cpu time spent up to now is      806.5 secs

     total energy              =   -1117.95251154 Ry
     estimated scf accuracy    <       0.80290822 Ry

     total magnetization       =     2.35 Bohr mag/cell
     absolute magnetization    =     3.09 Bohr mag/cell

     iteration #  4     ecut=   180.00 Ry     beta= 0.10
     Davidson diagonalization with overlap

---- Real-time Memory Report at c_bands before calling an iterative solver
           939 MiB given to the printing process from OS
             0 MiB allocation reported by mallinfo(arena+hblkhd)
        393601 MiB available memory on the node where the printing process lives
------------------
     ethr =  1.12E-03,  avg # of iterations =  2.0

     =================== HUBBARD OCCUPATIONS ===================
     ------------------------ ATOM    1 ------------------------
     Tr[ns(  1)] (up, down, total) =   4.93252  0.52474  5.45725
     Atomic magnetic moment for atom   1 =   4.40778
     SPIN  1
     eigenvalues:
       0.984  0.984  0.985  0.990  0.990
     eigenvectors (columns):
      -0.503  0.217  0.000 -0.276  0.790
       0.079 -0.678 -0.577 -0.440  0.083
       0.548  0.408 -0.577  0.292  0.339
       0.217  0.503 -0.000 -0.790 -0.276
       0.627 -0.270  0.577 -0.148  0.423
     occupation matrix ns (before diag.):
       0.988  0.001  0.001  0.000  0.002
       0.001  0.985 -0.000  0.002  0.000
       0.001 -0.000  0.985 -0.002  0.000
       0.000  0.002 -0.002  0.988 -0.000
       0.002  0.000  0.000 -0.000  0.985
     SPIN  2
     eigenvalues:
       0.068  0.068  0.127  0.131  0.131
     eigenvectors (columns):
       0.493  0.639  0.000  0.552  0.210
       0.478 -0.064  0.577 -0.106 -0.650
      -0.183  0.446  0.577 -0.510  0.417
       0.639 -0.493 -0.000 -0.210  0.552
       0.295  0.382 -0.577 -0.616 -0.234
     occupation matrix ns (before diag.):
       0.090 -0.012 -0.012  0.000 -0.024
      -0.012  0.115  0.006 -0.021 -0.006
      -0.012  0.006  0.115  0.021 -0.006
       0.000 -0.021  0.021  0.090 -0.000
      -0.024 -0.006 -0.006 -0.000  0.115
     ------------------------ ATOM    2 ------------------------
     Tr[ns(  2)] (up, down, total) =   4.97733  4.78686  9.76420
     Atomic magnetic moment for atom   2 =   0.19047
     SPIN  1
     eigenvalues:
       0.991  0.995  0.996  0.998  0.998
     eigenvectors (columns):
      -0.520 -0.000 -0.007  0.854 -0.000
      -0.354 -0.543  0.575 -0.211 -0.453
      -0.354  0.543  0.575 -0.211  0.453
       0.000 -0.640 -0.000  0.000  0.768
       0.692 -0.000  0.582  0.426 -0.000
     occupation matrix ns (before diag.):
       0.996 -0.001 -0.001  0.000  0.003
      -0.001  0.995 -0.001 -0.001  0.001
      -0.001 -0.001  0.995  0.001  0.001
       0.000 -0.001  0.001  0.997 -0.000
       0.003  0.001  0.001 -0.000  0.994
     SPIN  2
     eigenvalues:
       0.895  0.930  0.981  0.988  0.993
     eigenvectors (columns):
       0.000  0.483 -0.278  0.000  0.831
      -0.566  0.419  0.567 -0.424 -0.054
       0.566  0.419  0.567  0.424 -0.054
      -0.599 -0.000  0.000  0.801 -0.000
      -0.000 -0.645  0.529  0.000  0.552
     occupation matrix ns (before diag.):
       0.977 -0.011 -0.011  0.000  0.022
      -0.011  0.946  0.017 -0.032  0.014
      -0.011  0.017  0.946  0.032  0.014
       0.000 -0.032  0.032  0.955 -0.000
       0.022  0.014  0.014 -0.000  0.963
     ------------------------ ATOM    3 ------------------------
     Tr[ns(  3)] (up, down, total) =   4.97733  4.78686  9.76420
     Atomic magnetic moment for atom   3 =   0.19047
     SPIN  1
     eigenvalues:
       0.991  0.995  0.996  0.998  0.998
     eigenvectors (columns):
       0.260  0.555  0.003 -0.427 -0.665
      -0.354  0.543  0.575 -0.211  0.453
      -0.692 -0.000 -0.582 -0.426  0.000
      -0.451  0.320 -0.006  0.740 -0.384
       0.354  0.543 -0.575  0.211  0.453
     occupation matrix ns (before diag.):
       0.997 -0.000  0.001  0.000 -0.002
      -0.000  0.995 -0.001 -0.002  0.001
       0.001 -0.001  0.994 -0.002  0.001
       0.000 -0.002 -0.002  0.996  0.001
      -0.002  0.001  0.001  0.001  0.995
     SPIN  2
     eigenvalues:
       0.895  0.930  0.981  0.988  0.993
     eigenvectors (columns):
       0.519  0.241  0.139  0.693  0.415
       0.566 -0.419  0.567 -0.424  0.054
      -0.000 -0.645 -0.529  0.000  0.552
       0.300 -0.418 -0.241  0.400 -0.719
       0.566  0.419 -0.567 -0.424 -0.054
     occupation matrix ns (before diag.):
       0.960 -0.022  0.011 -0.010 -0.033
      -0.022  0.946 -0.014 -0.025 -0.017
       0.011 -0.014  0.963 -0.019  0.014
      -0.010 -0.025 -0.019  0.972 -0.006
      -0.033 -0.017  0.014 -0.006  0.946
     ------------------------ ATOM    4 ------------------------
     Tr[ns(  4)] (up, down, total) =   4.97733  4.78686  9.76420
     Atomic magnetic moment for atom   4 =   0.19047
     SPIN  1
     eigenvalues:
       0.991  0.995  0.996  0.998  0.998
     eigenvectors (columns):
       0.260  0.555  0.003 -0.427 -0.665
      -0.692 -0.000 -0.582 -0.426  0.000
      -0.354  0.543  0.575 -0.211  0.453
       0.451 -0.320  0.006 -0.740  0.384
       0.354  0.543 -0.575  0.211  0.453
     occupation matrix ns (before diag.):
       0.997  0.001 -0.000 -0.000 -0.002
       0.001  0.994 -0.001  0.002  0.001
      -0.000 -0.001  0.995  0.002  0.001
      -0.000  0.002  0.002  0.996 -0.001
      -0.002  0.001  0.001 -0.001  0.995
     SPIN  2
     eigenvalues:
       0.895  0.930  0.981  0.988  0.993
     eigenvectors (columns):
       0.519  0.241  0.139  0.693  0.415
       0.000 -0.645 -0.529  0.000  0.552
       0.566 -0.419  0.567 -0.424  0.054
      -0.300  0.418  0.241 -0.400  0.719
       0.566  0.419 -0.567 -0.424 -0.054
     occupation matrix ns (before diag.):
       0.960  0.011 -0.022  0.010 -0.033
       0.011  0.963 -0.014  0.019  0.014
      -0.022 -0.014  0.946  0.025 -0.017
       0.010  0.019  0.025  0.972  0.006
      -0.033  0.014 -0.017  0.006  0.946

     Number of occupied Hubbard levels =   34.7498

     negative rho (up, down):  1.768E-05 2.186E-06

     HUBBARD ENERGY =    0.2100  (Ry)

     total cpu time spent up to now is      908.3 secs

     total energy              =   -1117.82597462 Ry
     estimated scf accuracy    <       9.49068671 Ry

     total magnetization       =     6.31 Bohr mag/cell
     absolute magnetization    =     6.39 Bohr mag/cell

     iteration #  5     ecut=   180.00 Ry     beta= 0.10
     Davidson diagonalization with overlap

---- Real-time Memory Report at c_bands before calling an iterative solver
           955 MiB given to the printing process from OS
             0 MiB allocation reported by mallinfo(arena+hblkhd)
        391263 MiB available memory on the node where the printing process lives
------------------
     ethr =  1.12E-03,  avg # of iterations =  1.5

     =================== HUBBARD OCCUPATIONS ===================
     ------------------------ ATOM    1 ------------------------
     Tr[ns(  1)] (up, down, total) =   4.97179  4.02578  8.99757
     Atomic magnetic moment for atom   1 =   0.94602
     SPIN  1
     eigenvalues:
       0.991  0.991  0.995  0.997  0.997
     eigenvectors (columns):
      -0.502 -0.206  0.000 -0.326 -0.774
       0.092  0.680  0.577 -0.440 -0.055
       0.542 -0.420  0.577  0.268 -0.353
       0.206 -0.502 -0.000 -0.774  0.326
       0.635  0.260 -0.577 -0.172 -0.408
     occupation matrix ns (before diag.):
       0.995  0.001  0.001  0.000  0.002
       0.001  0.994  0.001  0.002 -0.001
       0.001  0.001  0.994 -0.002 -0.001
       0.000  0.002 -0.002  0.995 -0.000
       0.002 -0.001 -0.001 -0.000  0.994
     SPIN  2
     eigenvalues:
       0.609  0.609  0.930  0.930  0.947
     eigenvectors (columns):
      -0.470  0.150 -0.283 -0.822  0.000
       0.151 -0.694 -0.396 -0.077 -0.577
       0.525  0.478  0.265 -0.304 -0.577
       0.150  0.470 -0.822  0.283 -0.000
       0.676 -0.216 -0.131 -0.381  0.577
     occupation matrix ns (before diag.):
       0.852  0.056  0.056  0.000  0.112
       0.056  0.774  0.087  0.097 -0.087
       0.056  0.087  0.774 -0.097 -0.087
       0.000  0.097 -0.097  0.852 -0.000
       0.112 -0.087 -0.087 -0.000  0.774
     ------------------------ ATOM    2 ------------------------
     Tr[ns(  2)] (up, down, total) =   4.94163  4.44764  9.38927
     Atomic magnetic moment for atom   2 =   0.49399
     SPIN  1
     eigenvalues:
       0.976  0.977  0.994  0.997  0.997
     eigenvectors (columns):
      -0.412  0.000  0.228 -0.882  0.000
      -0.515  0.533 -0.470  0.119  0.465
      -0.515 -0.533 -0.470  0.119 -0.465
       0.000  0.657 -0.000 -0.000 -0.754
       0.548 -0.000 -0.712 -0.440  0.000
     occupation matrix ns (before diag.):
       0.993 -0.004 -0.004  0.000  0.005
      -0.004  0.985 -0.001 -0.007  0.005
      -0.004 -0.001  0.985  0.007  0.005
       0.000 -0.007  0.007  0.989 -0.000
       0.005  0.005  0.005 -0.000  0.989
     SPIN  2
     eigenvalues:
       0.648  0.841  0.978  0.989  0.991
     eigenvectors (columns):
      -0.000 -0.549  0.267 -0.000  0.792
       0.589 -0.363 -0.605  0.392 -0.048
      -0.589 -0.363 -0.605 -0.392 -0.048
       0.554  0.000 -0.000 -0.832 -0.000
       0.000  0.659 -0.444 -0.000  0.607
     occupation matrix ns (before diag.):
       0.945 -0.028 -0.028  0.000  0.056
      -0.028  0.847  0.094 -0.111  0.032
      -0.028  0.094  0.847  0.111  0.032
       0.000 -0.111  0.111  0.884 -0.000
       0.056  0.032  0.032 -0.000  0.923
     ------------------------ ATOM    3 ------------------------
     Tr[ns(  3)] (up, down, total) =   4.94163  4.44764  9.38927
     Atomic magnetic moment for atom   3 =   0.49399
     SPIN  1
     eigenvalues:
       0.976  0.977  0.994  0.997  0.997
     eigenvectors (columns):
       0.206 -0.569  0.114  0.441  0.653
      -0.515 -0.533  0.470  0.119 -0.465
      -0.548 -0.000 -0.712  0.440 -0.000
      -0.357 -0.328 -0.198 -0.764  0.377
       0.515 -0.533 -0.470 -0.119 -0.465
     occupation matrix ns (before diag.):
       0.990 -0.004  0.003 -0.002 -0.008
      -0.004  0.985 -0.005 -0.007  0.001
       0.003 -0.005  0.989 -0.005  0.005
      -0.002 -0.007 -0.005  0.992  0.000
      -0.008  0.001  0.005  0.000  0.985
     SPIN  2
     eigenvalues:
       0.648  0.841  0.978  0.989  0.991
     eigenvectors (columns):
       0.480  0.274  0.134  0.721  0.396
       0.589 -0.363  0.605 -0.392  0.048
      -0.000 -0.659 -0.444  0.000  0.607
       0.277 -0.475 -0.232  0.416 -0.686
       0.589  0.363 -0.605 -0.392 -0.048
     occupation matrix ns (before diag.):
       0.900 -0.082  0.028 -0.026 -0.110
      -0.082  0.847 -0.032 -0.080 -0.094
       0.028 -0.032  0.923 -0.049  0.032
      -0.026 -0.080 -0.049  0.930 -0.032
      -0.110 -0.094  0.032 -0.032  0.847
     ------------------------ ATOM    4 ------------------------
     Tr[ns(  4)] (up, down, total) =   4.94163  4.44764  9.38927
     Atomic magnetic moment for atom   4 =   0.49399
     SPIN  1
     eigenvalues:
       0.976  0.977  0.994  0.997  0.997
     eigenvectors (columns):
       0.206 -0.569  0.114  0.441  0.653
      -0.548  0.000 -0.712  0.440 -0.000
      -0.515 -0.533  0.470  0.119 -0.465
       0.357  0.328  0.198  0.764 -0.377
       0.515 -0.533 -0.470 -0.119 -0.465
     occupation matrix ns (before diag.):
       0.990  0.003 -0.004  0.002 -0.008
       0.003  0.989 -0.005  0.005  0.005
      -0.004 -0.005  0.985  0.007  0.001
       0.002  0.005  0.007  0.992 -0.000
      -0.008  0.005  0.001 -0.000  0.985
     SPIN  2
     eigenvalues:
       0.648  0.841  0.978  0.989  0.991
     eigenvectors (columns):
       0.480  0.274  0.134  0.721  0.396
       0.000 -0.659 -0.444  0.000  0.607
       0.589 -0.363  0.605 -0.392  0.048
      -0.277  0.475  0.232 -0.416  0.686
       0.589  0.363 -0.605 -0.392 -0.048
     occupation matrix ns (before diag.):
       0.900  0.028 -0.082  0.026 -0.110
       0.028  0.923 -0.032  0.049  0.032
      -0.082 -0.032  0.847  0.080 -0.094
       0.026  0.049  0.080  0.930  0.032
      -0.110  0.032 -0.094  0.032  0.847

     Number of occupied Hubbard levels =   37.1654

     negative rho (up, down):  1.202E-05 1.501E-06

     HUBBARD ENERGY =    0.2042  (Ry)

     total cpu time spent up to now is     1004.2 secs

     total energy              =   -1118.10863557 Ry
     estimated scf accuracy    <       0.13751533 Ry

     total magnetization       =     2.69 Bohr mag/cell
     absolute magnetization    =     3.14 Bohr mag/cell

     iteration #  6     ecut=   180.00 Ry     beta= 0.10
     Davidson diagonalization with overlap

---- Real-time Memory Report at c_bands before calling an iterative solver
           972 MiB given to the printing process from OS
             0 MiB allocation reported by mallinfo(arena+hblkhd)
        388484 MiB available memory on the node where the printing process lives
------------------
     ethr =  1.91E-04,  avg # of iterations = 19.0

     =================== HUBBARD OCCUPATIONS ===================
     ------------------------ ATOM    1 ------------------------
     Tr[ns(  1)] (up, down, total) =   4.97859  4.34932  9.32791
     Atomic magnetic moment for atom   1 =   0.62927
     SPIN  1
     eigenvalues:
       0.993  0.993  0.996  0.998  0.998
     eigenvectors (columns):
      -0.519 -0.196 -0.000 -0.374 -0.743
       0.110  0.670  0.577 -0.452 -0.026
       0.525 -0.431  0.577  0.249 -0.379
       0.196 -0.519 -0.000 -0.743  0.374
       0.636  0.240 -0.577 -0.204 -0.405
     occupation matrix ns (before diag.):
       0.996  0.001  0.001  0.000  0.002
       0.001  0.995  0.000  0.001 -0.000
       0.001  0.000  0.995 -0.001 -0.000
       0.000  0.001 -0.001  0.996 -0.000
       0.002 -0.000 -0.000 -0.000  0.995
     SPIN  2
     eigenvalues:
       0.712  0.712  0.974  0.974  0.978
     eigenvectors (columns):
       0.455 -0.139 -0.252 -0.842  0.000
      -0.162  0.699 -0.378 -0.090 -0.577
      -0.525 -0.490  0.267 -0.283 -0.577
      -0.139 -0.455 -0.842  0.252 -0.000
      -0.687  0.209 -0.112 -0.372  0.577
     occupation matrix ns (before diag.):
       0.914  0.045  0.045  0.000  0.089
       0.045  0.840  0.069  0.077 -0.069
       0.045  0.069  0.840 -0.077 -0.069
       0.000  0.077 -0.077  0.914 -0.000
       0.089 -0.069 -0.069 -0.000  0.840
     ------------------------ ATOM    2 ------------------------
     Tr[ns(  2)] (up, down, total) =   4.93545  4.43910  9.37455
     Atomic magnetic moment for atom   2 =   0.49635
     SPIN  1
     eigenvalues:
       0.972  0.975  0.994  0.997  0.997
     eigenvectors (columns):
      -0.419  0.000  0.224 -0.880  0.000
      -0.515  0.533 -0.468  0.126  0.465
      -0.515 -0.533 -0.468  0.126 -0.465
       0.000  0.658 -0.000 -0.000 -0.753
       0.542 -0.000 -0.716 -0.440  0.000
     occupation matrix ns (before diag.):
       0.993 -0.005 -0.005  0.000  0.006
      -0.005  0.984 -0.001 -0.008  0.006
      -0.005 -0.001  0.984  0.008  0.006
       0.000 -0.008  0.008  0.988 -0.000
       0.006  0.006  0.006 -0.000  0.988
     SPIN  2
     eigenvalues:
       0.646  0.835  0.979  0.989  0.991
     eigenvectors (columns):
       0.000 -0.559  0.285  0.000  0.779
      -0.592 -0.354 -0.611 -0.386 -0.030
       0.592 -0.354 -0.611  0.386 -0.030
      -0.547  0.000  0.000  0.837 -0.000
      -0.000  0.661 -0.414  0.000  0.626
     occupation matrix ns (before diag.):
       0.941 -0.029 -0.029  0.000  0.059
      -0.029  0.845  0.097 -0.111  0.034
      -0.029  0.097  0.845  0.111  0.034
       0.000 -0.111  0.111  0.886 -0.000
       0.059  0.034  0.034 -0.000  0.921
     ------------------------ ATOM    3 ------------------------
     Tr[ns(  3)] (up, down, total) =   4.93545  4.43910  9.37455
     Atomic magnetic moment for atom   3 =   0.49635
     SPIN  1
     eigenvalues:
       0.972  0.975  0.994  0.997  0.997
     eigenvectors (columns):
       0.209 -0.569  0.112  0.440  0.652
      -0.515 -0.533  0.468  0.126 -0.465
      -0.542 -0.000 -0.716  0.440 -0.000
      -0.363 -0.329 -0.194 -0.762  0.377
       0.515 -0.533 -0.468 -0.126 -0.465
     occupation matrix ns (before diag.):
       0.989 -0.004  0.003 -0.002 -0.009
      -0.004  0.984 -0.006 -0.008  0.001
       0.003 -0.006  0.988 -0.005  0.006
      -0.002 -0.008 -0.005  0.991  0.000
      -0.009  0.001  0.006  0.000  0.984
     SPIN  2
     eigenvalues:
       0.646  0.835  0.979  0.989  0.991
     eigenvectors (columns):
       0.473  0.279  0.143  0.725  0.389
       0.592 -0.354  0.611 -0.386  0.030
      -0.000 -0.661 -0.414  0.000  0.626
       0.273 -0.484 -0.247  0.419 -0.674
       0.592  0.354 -0.611 -0.386 -0.030
     occupation matrix ns (before diag.):
       0.900 -0.082  0.030 -0.024 -0.111
      -0.082  0.845 -0.034 -0.080 -0.097
       0.030 -0.034  0.921 -0.051  0.034
      -0.024 -0.080 -0.051  0.928 -0.031
      -0.111 -0.097  0.034 -0.031  0.845
     ------------------------ ATOM    4 ------------------------
     Tr[ns(  4)] (up, down, total) =   4.93545  4.43910  9.37455
     Atomic magnetic moment for atom   4 =   0.49635
     SPIN  1
     eigenvalues:
       0.972  0.975  0.994  0.997  0.997
     eigenvectors (columns):
       0.209 -0.569  0.112  0.440  0.652
      -0.542  0.000 -0.716  0.440 -0.000
      -0.515 -0.533  0.468  0.126 -0.465
       0.363  0.329  0.194  0.762 -0.377
       0.515 -0.533 -0.468 -0.126 -0.465
     occupation matrix ns (before diag.):
       0.989  0.003 -0.004  0.002 -0.009
       0.003  0.988 -0.006  0.005  0.006
      -0.004 -0.006  0.984  0.008  0.001
       0.002  0.005  0.008  0.991 -0.000
      -0.009  0.006  0.001 -0.000  0.984
     SPIN  2
     eigenvalues:
       0.646  0.835  0.979  0.989  0.991
     eigenvectors (columns):
       0.473  0.279  0.143  0.725  0.389
       0.000 -0.661 -0.414  0.000  0.626
       0.592 -0.354  0.611 -0.386  0.030
      -0.273  0.484  0.247 -0.419  0.674
       0.592  0.354 -0.611 -0.386 -0.030
     occupation matrix ns (before diag.):
       0.900  0.030 -0.082  0.024 -0.111
       0.030  0.921 -0.034  0.051  0.034
      -0.082 -0.034  0.845  0.080 -0.097
       0.024  0.051  0.080  0.928  0.031
      -0.111  0.034 -0.097  0.031  0.845

     Number of occupied Hubbard levels =   37.4516

     HUBBARD ENERGY =    0.1831  (Ry)

     total cpu time spent up to now is     1231.3 secs

     total energy              =   -1118.15869930 Ry
     estimated scf accuracy    <       0.26183408 Ry

     total magnetization       =     2.17 Bohr mag/cell
     absolute magnetization    =     2.71 Bohr mag/cell

     iteration #  7     ecut=   180.00 Ry     beta= 0.10
     Davidson diagonalization with overlap

---- Real-time Memory Report at c_bands before calling an iterative solver
           989 MiB given to the printing process from OS
             0 MiB allocation reported by mallinfo(arena+hblkhd)
        386275 MiB available memory on the node where the printing process lives
------------------
     ethr =  1.91E-04,  avg # of iterations =  1.0

     =================== HUBBARD OCCUPATIONS ===================
     ------------------------ ATOM    1 ------------------------
     Tr[ns(  1)] (up, down, total) =   4.97454  4.29622  9.27076
     Atomic magnetic moment for atom   1 =   0.67832
     SPIN  1
     eigenvalues:
       0.993  0.993  0.995  0.997  0.997
     eigenvectors (columns):
      -0.506 -0.235 -0.000 -0.334 -0.760
       0.060  0.675  0.577 -0.453 -0.050
       0.555 -0.389  0.577  0.269 -0.367
       0.235 -0.506 -0.000 -0.760  0.334
       0.614  0.286 -0.577 -0.183 -0.417
     occupation matrix ns (before diag.):
       0.996  0.001  0.001  0.000  0.002
       0.001  0.994  0.000  0.001 -0.000
       0.001  0.000  0.994 -0.001 -0.000
       0.000  0.001 -0.001  0.996 -0.000
       0.002 -0.000 -0.000 -0.000  0.994
     SPIN  2
     eigenvalues:
       0.677  0.677  0.979  0.979  0.984
     eigenvectors (columns):
      -0.431  0.115 -0.257 -0.857  0.000
       0.190 -0.706 -0.354 -0.084 -0.577
       0.516  0.517  0.250 -0.265 -0.577
       0.115  0.431 -0.857  0.257 -0.000
       0.706 -0.188 -0.105 -0.349  0.577
     occupation matrix ns (before diag.):
       0.919  0.049  0.049  0.000  0.098
       0.049  0.819  0.082  0.085 -0.082
       0.049  0.082  0.819 -0.085 -0.082
       0.000  0.085 -0.085  0.919 -0.000
       0.098 -0.082 -0.082 -0.000  0.819
     ------------------------ ATOM    2 ------------------------
     Tr[ns(  2)] (up, down, total) =   4.93300  4.48850  9.42150
     Atomic magnetic moment for atom   2 =   0.44450
     SPIN  1
     eigenvalues:
       0.972  0.974  0.994  0.997  0.997
     eigenvectors (columns):
      -0.420  0.000  0.219 -0.000 -0.881
      -0.508  0.540 -0.477  0.457  0.123
      -0.508 -0.540 -0.477 -0.457  0.123
       0.000  0.646 -0.000 -0.763  0.000
       0.555 -0.000 -0.705 -0.000 -0.440
     occupation matrix ns (before diag.):
       0.992 -0.005 -0.005  0.000  0.006
      -0.005  0.983 -0.001 -0.008  0.006
      -0.005 -0.001  0.983  0.008  0.006
       0.000 -0.008  0.008  0.987 -0.000
       0.006  0.006  0.006 -0.000  0.987
     SPIN  2
     eigenvalues:
       0.656  0.858  0.986  0.993  0.995
     eigenvectors (columns):
      -0.000 -0.493  0.233 -0.000  0.838
       0.597 -0.386 -0.589  0.378 -0.063
      -0.597 -0.386 -0.589 -0.378 -0.063
       0.535  0.000 -0.000 -0.845 -0.000
       0.000  0.678 -0.502 -0.000  0.538
     occupation matrix ns (before diag.):
       0.961 -0.025 -0.025  0.000  0.047
      -0.025  0.850  0.098 -0.108  0.033
      -0.025  0.098  0.850  0.108  0.033
       0.000 -0.108  0.108  0.897 -0.000
       0.047  0.033  0.033 -0.000  0.930
     ------------------------ ATOM    3 ------------------------
     Tr[ns(  3)] (up, down, total) =   4.93300  4.48850  9.42150
     Atomic magnetic moment for atom   3 =   0.44450
     SPIN  1
     eigenvalues:
       0.972  0.974  0.994  0.997  0.997
     eigenvectors (columns):
      -0.210  0.560 -0.110  0.661  0.440
       0.508  0.540 -0.477 -0.457  0.123
       0.555  0.000  0.705  0.000  0.440
       0.364  0.323  0.190  0.381 -0.763
      -0.508  0.540  0.477 -0.457 -0.123
     occupation matrix ns (before diag.):
       0.989 -0.004  0.003 -0.002 -0.009
      -0.004  0.983 -0.006 -0.008  0.001
       0.003 -0.006  0.987 -0.006  0.006
      -0.002 -0.008 -0.006  0.991  0.000
      -0.009  0.001  0.006  0.000  0.983
     SPIN  2
     eigenvalues:
       0.656  0.858  0.986  0.993  0.995
     eigenvectors (columns):
       0.463  0.246  0.117  0.732  0.419
       0.597 -0.386  0.589 -0.378  0.063
      -0.000 -0.678 -0.502  0.000  0.538
       0.268 -0.427 -0.202  0.422 -0.726
       0.597  0.386 -0.589 -0.378 -0.063
     occupation matrix ns (before diag.):
       0.913 -0.081  0.023 -0.028 -0.106
      -0.081  0.850 -0.033 -0.075 -0.098
       0.023 -0.033  0.930 -0.040  0.033
      -0.028 -0.075 -0.040  0.945 -0.032
      -0.106 -0.098  0.033 -0.032  0.850
     ------------------------ ATOM    4 ------------------------
     Tr[ns(  4)] (up, down, total) =   4.93300  4.48850  9.42150
     Atomic magnetic moment for atom   4 =   0.44450
     SPIN  1
     eigenvalues:
       0.972  0.974  0.994  0.997  0.997
     eigenvectors (columns):
      -0.210  0.560 -0.110  0.661  0.440
       0.555 -0.000  0.705  0.000  0.440
       0.508  0.540 -0.477 -0.457  0.123
      -0.364 -0.323 -0.190 -0.381  0.763
      -0.508  0.540  0.477 -0.457 -0.123
     occupation matrix ns (before diag.):
       0.989  0.003 -0.004  0.002 -0.009
       0.003  0.987 -0.006  0.006  0.006
      -0.004 -0.006  0.983  0.008  0.001
       0.002  0.006  0.008  0.991 -0.000
      -0.009  0.006  0.001 -0.000  0.983
     SPIN  2
     eigenvalues:
       0.656  0.858  0.986  0.993  0.995
     eigenvectors (columns):
       0.463  0.246 -0.117 -0.732  0.419
       0.000 -0.678  0.502 -0.000  0.538
       0.597 -0.386 -0.589  0.378  0.063
      -0.268  0.427 -0.202  0.422  0.726
       0.597  0.386  0.589  0.378 -0.063
     occupation matrix ns (before diag.):
       0.913  0.023 -0.081  0.028 -0.106
       0.023  0.930 -0.033  0.040  0.033
      -0.081 -0.033  0.850  0.075 -0.098
       0.028  0.040  0.075  0.945  0.032
      -0.106  0.033 -0.098  0.032  0.850

     Number of occupied Hubbard levels =   37.5353

     HUBBARD ENERGY =    0.1789  (Ry)

     total cpu time spent up to now is     1321.9 secs

     total energy              =   -1118.16166965 Ry
     estimated scf accuracy    <       0.13695736 Ry

     total magnetization       =     2.04 Bohr mag/cell
     absolute magnetization    =     2.47 Bohr mag/cell

     iteration #  8     ecut=   180.00 Ry     beta= 0.10
     Davidson diagonalization with overlap

---- Real-time Memory Report at c_bands before calling an iterative solver
          1008 MiB given to the printing process from OS
             0 MiB allocation reported by mallinfo(arena+hblkhd)
        383978 MiB available memory on the node where the printing process lives
------------------
     ethr =  1.90E-04,  avg # of iterations =  1.0

     =================== HUBBARD OCCUPATIONS ===================
     ------------------------ ATOM    1 ------------------------
     Tr[ns(  1)] (up, down, total) =   4.97167  4.24225  9.21391
     Atomic magnetic moment for atom   1 =   0.72942
     SPIN  1
     eigenvalues:
       0.992  0.992  0.995  0.997  0.997
     eigenvectors (columns):
      -0.515 -0.221 -0.000 -0.306 -0.770
       0.080  0.672  0.577 -0.453 -0.066
       0.542 -0.405  0.577  0.284 -0.359
       0.221 -0.515 -0.000 -0.770  0.306
       0.622  0.266 -0.577 -0.169 -0.425
     occupation matrix ns (before diag.):
       0.995  0.001  0.001  0.000  0.002
       0.001  0.994  0.000  0.002 -0.000
       0.001  0.000  0.994 -0.002 -0.000
       0.000  0.002 -0.002  0.995 -0.000
       0.002 -0.000 -0.000 -0.000  0.994
     SPIN  2
     eigenvalues:
       0.652  0.652  0.978  0.978  0.982
     eigenvectors (columns):
      -0.429  0.104 -0.230 -0.867  0.000
       0.207 -0.703 -0.348 -0.094 -0.577
       0.505  0.531  0.256 -0.254 -0.577
       0.104  0.429 -0.867  0.230 -0.000
       0.712 -0.172 -0.092 -0.349  0.577
     occupation matrix ns (before diag.):
       0.914  0.053  0.053  0.000  0.105
       0.053  0.805  0.089  0.091 -0.089
       0.053  0.089  0.805 -0.091 -0.089
       0.000  0.091 -0.091  0.914 -0.000
       0.105 -0.089 -0.089 -0.000  0.805
     ------------------------ ATOM    2 ------------------------
     Tr[ns(  2)] (up, down, total) =   4.93211  4.50286  9.43497
     Atomic magnetic moment for atom   2 =   0.42925
     SPIN  1
     eigenvalues:
       0.972  0.974  0.993  0.997  0.997
     eigenvectors (columns):
      -0.428  0.000  0.212 -0.879  0.000
      -0.510  0.538 -0.471  0.134  0.458
      -0.510 -0.538 -0.471  0.134 -0.458
       0.000  0.648 -0.000 -0.000 -0.762
       0.546 -0.000 -0.715 -0.438  0.000
     occupation matrix ns (before diag.):
       0.992 -0.005 -0.005  0.000  0.006
      -0.005  0.983 -0.001 -0.008  0.006
      -0.005 -0.001  0.983  0.008  0.006
       0.000 -0.008  0.008  0.987 -0.000
       0.006  0.006  0.006 -0.000  0.987
     SPIN  2
     eigenvalues:
       0.661  0.866  0.986  0.994  0.995
     eigenvectors (columns):
      -0.000 -0.481  0.206 -0.000  0.852
       0.597 -0.394 -0.581  0.378 -0.082
      -0.597 -0.394 -0.581 -0.378 -0.082
       0.535  0.000 -0.000 -0.845 -0.000
       0.000  0.677 -0.531 -0.000  0.510
     occupation matrix ns (before diag.):
       0.965 -0.023 -0.023  0.000  0.043
      -0.023  0.853  0.096 -0.106  0.032
      -0.023  0.096  0.853  0.106  0.032
       0.000 -0.106  0.106  0.899 -0.000
       0.043  0.032  0.032 -0.000  0.934
     ------------------------ ATOM    3 ------------------------
     Tr[ns(  3)] (up, down, total) =   4.93211  4.50286  9.43497
     Atomic magnetic moment for atom   3 =   0.42925
     SPIN  1
     eigenvalues:
       0.972  0.974  0.993  0.997  0.997
     eigenvectors (columns):
       0.214 -0.561  0.106  0.439  0.659
      -0.510 -0.538  0.471  0.134 -0.458
      -0.546 -0.000 -0.715  0.438 -0.000
      -0.370 -0.324 -0.183 -0.761  0.381
       0.510 -0.538 -0.471 -0.134 -0.458
     occupation matrix ns (before diag.):
       0.988 -0.004  0.003 -0.002 -0.010
      -0.004  0.983 -0.006 -0.008  0.001
       0.003 -0.006  0.987 -0.006  0.006
      -0.002 -0.008 -0.006  0.991  0.000
      -0.010  0.001  0.006  0.000  0.983
     SPIN  2
     eigenvalues:
       0.661  0.866  0.986  0.994  0.995
     eigenvectors (columns):
       0.463  0.241  0.103  0.732  0.426
       0.597 -0.394  0.581 -0.378  0.082
      -0.000 -0.677 -0.531  0.000  0.510
       0.267 -0.417 -0.178  0.422 -0.738
       0.597  0.394 -0.581 -0.378 -0.082
     occupation matrix ns (before diag.):
       0.915 -0.080  0.022 -0.029 -0.104
      -0.080  0.853 -0.032 -0.074 -0.096
       0.022 -0.032  0.934 -0.037  0.032
      -0.029 -0.074 -0.037  0.948 -0.033
      -0.104 -0.096  0.032 -0.033  0.853
     ------------------------ ATOM    4 ------------------------
     Tr[ns(  4)] (up, down, total) =   4.93211  4.50286  9.43497
     Atomic magnetic moment for atom   4 =   0.42925
     SPIN  1
     eigenvalues:
       0.972  0.974  0.993  0.997  0.997
     eigenvectors (columns):
       0.214 -0.561  0.106  0.439  0.659
      -0.546  0.000 -0.715  0.438 -0.000
      -0.510 -0.538  0.471  0.134 -0.458
       0.370  0.324  0.183  0.761 -0.381
       0.510 -0.538 -0.471 -0.134 -0.458
     occupation matrix ns (before diag.):
       0.988  0.003 -0.004  0.002 -0.010
       0.003  0.987 -0.006  0.006  0.006
      -0.004 -0.006  0.983  0.008  0.001
       0.002  0.006  0.008  0.991 -0.000
      -0.010  0.006  0.001 -0.000  0.983
     SPIN  2
     eigenvalues:
       0.661  0.866  0.986  0.994  0.995
     eigenvectors (columns):
       0.463  0.241 -0.103 -0.732  0.426
       0.000 -0.677  0.531 -0.000  0.510
       0.597 -0.394 -0.581  0.378  0.082
      -0.267  0.417 -0.178  0.422  0.738
       0.597  0.394  0.581  0.378 -0.082
     occupation matrix ns (before diag.):
       0.915  0.022 -0.080  0.029 -0.104
       0.022  0.934 -0.032  0.037  0.032
      -0.080 -0.032  0.853  0.074 -0.096
       0.029  0.037  0.074  0.948  0.033
      -0.104  0.032 -0.096  0.033  0.853

     Number of occupied Hubbard levels =   37.5188

     negative rho (up, down):  4.067E-07 2.437E-07

     HUBBARD ENERGY =    0.1691  (Ry)

     total cpu time spent up to now is     1412.5 secs

     total energy              =   -1118.15494207 Ry
     estimated scf accuracy    <       0.09357879 Ry

     total magnetization       =     2.05 Bohr mag/cell
     absolute magnetization    =     2.46 Bohr mag/cell

     iteration #  9     ecut=   180.00 Ry     beta= 0.10
     Davidson diagonalization with overlap

---- Real-time Memory Report at c_bands before calling an iterative solver
          1023 MiB given to the printing process from OS
             0 MiB allocation reported by mallinfo(arena+hblkhd)
        381356 MiB available memory on the node where the printing process lives
------------------
     ethr =  1.30E-04,  avg # of iterations =  1.0

     =================== HUBBARD OCCUPATIONS ===================
     ------------------------ ATOM    1 ------------------------
     Tr[ns(  1)] (up, down, total) =   4.96178  4.03874  9.00052
     Atomic magnetic moment for atom   1 =   0.92304
     SPIN  1
     eigenvalues:
       0.989  0.989  0.993  0.995  0.995
     eigenvectors (columns):
      -0.527 -0.204 -0.000 -0.331 -0.756
       0.104  0.666  0.577 -0.458 -0.051
       0.525 -0.423  0.577  0.273 -0.371
       0.204 -0.527 -0.000 -0.756  0.331
       0.628  0.243 -0.577 -0.185 -0.422
     occupation matrix ns (before diag.):
       0.993  0.001  0.001  0.000  0.002
       0.001  0.992  0.001  0.002 -0.001
       0.001  0.001  0.992 -0.002 -0.001
       0.000  0.002 -0.002  0.993 -0.000
       0.002 -0.001 -0.001 -0.000  0.992
     SPIN  2
     eigenvalues:
       0.560  0.560  0.971  0.971  0.977
     eigenvectors (columns):
       0.399 -0.157 -0.177 -0.886  0.000
      -0.109  0.730 -0.331 -0.112 -0.577
      -0.577 -0.459  0.263 -0.231 -0.577
      -0.157 -0.399 -0.886  0.177 -0.000
      -0.686  0.271 -0.069 -0.343  0.577
     occupation matrix ns (before diag.):
       0.896  0.065  0.065  0.000  0.130
       0.065  0.749  0.114  0.112 -0.114
       0.065  0.114  0.749 -0.112 -0.114
       0.000  0.112 -0.112  0.896 -0.000
       0.130 -0.114 -0.114 -0.000  0.749
     ------------------------ ATOM    2 ------------------------
     Tr[ns(  2)] (up, down, total) =   4.92938  4.54111  9.47048
     Atomic magnetic moment for atom   2 =   0.38827
     SPIN  1
     eigenvalues:
       0.971  0.973  0.992  0.996  0.997
     eigenvectors (columns):
      -0.433  0.000  0.207 -0.878  0.000
      -0.520  0.534 -0.455  0.149  0.463
      -0.520 -0.534 -0.455  0.149 -0.463
       0.000  0.655 -0.000 -0.000 -0.756
       0.521 -0.000 -0.737 -0.430  0.000
     occupation matrix ns (before diag.):
       0.991 -0.005 -0.005  0.000  0.006
      -0.005  0.982 -0.001 -0.008  0.005
      -0.005 -0.001  0.982  0.008  0.005
       0.000 -0.008  0.008  0.987 -0.000
       0.006  0.005  0.005 -0.000  0.987
     SPIN  2
     eigenvalues:
       0.684  0.881  0.987  0.995  0.996
     eigenvectors (columns):
      -0.000 -0.455 -0.183 -0.000  0.872
       0.597 -0.413  0.566  0.379 -0.097
      -0.597 -0.413  0.566 -0.379 -0.097
       0.536  0.000  0.000 -0.844 -0.000
       0.000  0.672  0.571 -0.000  0.471
     occupation matrix ns (before diag.):
       0.972 -0.021 -0.021  0.000  0.036
      -0.021  0.862  0.089 -0.099  0.029
      -0.021  0.089  0.862  0.099  0.029
       0.000 -0.099  0.099  0.905 -0.000
       0.036  0.029  0.029 -0.000  0.941
     ------------------------ ATOM    3 ------------------------
     Tr[ns(  3)] (up, down, total) =   4.92938  4.54111  9.47048
     Atomic magnetic moment for atom   3 =   0.38827
     SPIN  1
     eigenvalues:
       0.971  0.973  0.992  0.996  0.997
     eigenvectors (columns):
      -0.216 -0.567  0.103  0.439  0.654
       0.520 -0.534  0.455  0.149 -0.463
       0.521 -0.000 -0.737  0.430 -0.000
       0.375 -0.328 -0.179 -0.760  0.378
      -0.520 -0.534 -0.455 -0.149 -0.463
     occupation matrix ns (before diag.):
       0.988 -0.004  0.003 -0.002 -0.010
      -0.004  0.982 -0.005 -0.009  0.001
       0.003 -0.005  0.987 -0.006  0.005
      -0.002 -0.009 -0.006  0.990  0.001
      -0.010  0.001  0.005  0.001  0.982
     SPIN  2
     eigenvalues:
       0.684  0.881  0.987  0.995  0.996
     eigenvectors (columns):
       0.464  0.227  0.091  0.731  0.436
       0.597 -0.413  0.566 -0.379  0.097
      -0.000 -0.672 -0.571  0.000  0.471
       0.268 -0.394 -0.158  0.422 -0.755
       0.597  0.413 -0.566 -0.379 -0.097
     occupation matrix ns (before diag.):
       0.922 -0.076  0.018 -0.029 -0.096
      -0.076  0.862 -0.029 -0.068 -0.089
       0.018 -0.029  0.941 -0.031  0.029
      -0.029 -0.068 -0.031  0.955 -0.032
      -0.096 -0.089  0.029 -0.032  0.862
     ------------------------ ATOM    4 ------------------------
     Tr[ns(  4)] (up, down, total) =   4.92938  4.54111  9.47048
     Atomic magnetic moment for atom   4 =   0.38827
     SPIN  1
     eigenvalues:
       0.971  0.973  0.992  0.996  0.997
     eigenvectors (columns):
      -0.216 -0.567  0.103  0.439  0.654
       0.521  0.000 -0.737  0.430 -0.000
       0.520 -0.534  0.455  0.149 -0.463
      -0.375  0.328  0.179  0.760 -0.378
      -0.520 -0.534 -0.455 -0.149 -0.463
     occupation matrix ns (before diag.):
       0.988  0.003 -0.004  0.002 -0.010
       0.003  0.987 -0.005  0.006  0.005
      -0.004 -0.005  0.982  0.009  0.001
       0.002  0.006  0.009  0.990 -0.001
      -0.010  0.005  0.001 -0.001  0.982
     SPIN  2
     eigenvalues:
       0.684  0.881  0.987  0.995  0.996
     eigenvectors (columns):
       0.464  0.227 -0.091 -0.731  0.436
       0.000 -0.672  0.571 -0.000  0.471
       0.597 -0.413 -0.566  0.379  0.097
      -0.268  0.394 -0.158  0.422  0.755
       0.597  0.413  0.566  0.379 -0.097
     occupation matrix ns (before diag.):
       0.922  0.018 -0.076  0.029 -0.096
       0.018  0.941 -0.029  0.031  0.029
      -0.076 -0.029  0.862  0.068 -0.089
       0.029  0.031  0.068  0.955  0.032
      -0.096  0.029 -0.089  0.032  0.862

     Number of occupied Hubbard levels =   37.4120

     negative rho (up, down):  4.065E-07 2.436E-07

     HUBBARD ENERGY =    0.1691  (Ry)

     total cpu time spent up to now is     1503.3 secs

     total energy              =   -1118.15872534 Ry
     estimated scf accuracy    <       0.00894328 Ry

     total magnetization       =     2.15 Bohr mag/cell
     absolute magnetization    =     2.49 Bohr mag/cell

     iteration # 10     ecut=   180.00 Ry     beta= 0.10
     Davidson diagonalization with overlap

---- Real-time Memory Report at c_bands before calling an iterative solver
          1040 MiB given to the printing process from OS
             0 MiB allocation reported by mallinfo(arena+hblkhd)
        379018 MiB available memory on the node where the printing process lives
------------------
     c_bands:  2 eigenvalues not converged
     c_bands:  3 eigenvalues not converged
     ethr =  1.24E-05,  avg # of iterations = 20.0

     =================== HUBBARD OCCUPATIONS ===================
     ------------------------ ATOM    1 ------------------------
     Tr[ns(  1)] (up, down, total) =   4.96165  4.03849  9.00014
     Atomic magnetic moment for atom   1 =   0.92316
     SPIN  1
     eigenvalues:
       0.989  0.989  0.993  0.995  0.995
     eigenvectors (columns):
      -0.517 -0.228 -0.000 -0.304 -0.767
       0.072  0.670  0.577 -0.457 -0.067
       0.544 -0.397  0.577  0.286 -0.362
       0.228 -0.517 -0.000 -0.767  0.304
       0.616  0.272 -0.577 -0.170 -0.429
     occupation matrix ns (before diag.):
       0.993  0.001  0.001  0.000  0.002
       0.001  0.992  0.001  0.002 -0.001
       0.001  0.001  0.992 -0.002 -0.001
       0.000  0.002 -0.002  0.993 -0.000
       0.002 -0.001 -0.001 -0.000  0.992
     SPIN  2
     eigenvalues:
       0.560  0.560  0.971  0.971  0.977
     eigenvectors (columns):
       0.399 -0.156 -0.101 -0.898  0.000
      -0.111  0.729 -0.321 -0.140 -0.577
      -0.576 -0.461  0.281 -0.208 -0.577
      -0.156 -0.399 -0.898  0.101 -0.000
      -0.687  0.269 -0.039 -0.348  0.577
     occupation matrix ns (before diag.):
       0.895  0.065  0.065  0.000  0.130
       0.065  0.749  0.114  0.112 -0.114
       0.065  0.114  0.749 -0.112 -0.114
       0.000  0.112 -0.112  0.895 -0.000
       0.130 -0.114 -0.114 -0.000  0.749
     ------------------------ ATOM    2 ------------------------
     Tr[ns(  2)] (up, down, total) =   4.92931  4.54110  9.47041
     Atomic magnetic moment for atom   2 =   0.38821
     SPIN  1
     eigenvalues:
       0.971  0.973  0.992  0.996  0.997
     eigenvectors (columns):
      -0.433  0.000  0.207 -0.877  0.000
      -0.520  0.534 -0.455  0.149  0.463
      -0.520 -0.534 -0.455  0.149 -0.463
       0.000  0.655 -0.000 -0.000 -0.756
       0.521 -0.000 -0.737 -0.431  0.000
     occupation matrix ns (before diag.):
       0.991 -0.005 -0.005  0.000  0.006
      -0.005  0.982 -0.001 -0.008  0.005
      -0.005 -0.001  0.982  0.008  0.005
       0.000 -0.008  0.008  0.987 -0.000
       0.006  0.005  0.005 -0.000  0.987
     SPIN  2
     eigenvalues:
       0.684  0.881  0.987  0.995  0.996
     eigenvectors (columns):
      -0.000 -0.455 -0.183 -0.000  0.872
       0.597 -0.413  0.566  0.379 -0.097
      -0.597 -0.413  0.566 -0.379 -0.097
       0.536  0.000  0.000 -0.844 -0.000
       0.000  0.672  0.571 -0.000  0.471
     occupation matrix ns (before diag.):
       0.972 -0.021 -0.021  0.000  0.036
      -0.021  0.862  0.089 -0.099  0.029
      -0.021  0.089  0.862  0.099  0.029
       0.000 -0.099  0.099  0.905 -0.000
       0.036  0.029  0.029 -0.000  0.941
     ------------------------ ATOM    3 ------------------------
     Tr[ns(  3)] (up, down, total) =   4.92931  4.54110  9.47041
     Atomic magnetic moment for atom   3 =   0.38821
     SPIN  1
     eigenvalues:
       0.971  0.973  0.992  0.996  0.997
     eigenvectors (columns):
      -0.216 -0.567  0.103  0.439  0.654
       0.520 -0.534  0.455  0.149 -0.463
       0.521 -0.000 -0.737  0.431 -0.000
       0.375 -0.328 -0.179 -0.760  0.378
      -0.520 -0.534 -0.455 -0.149 -0.463
     occupation matrix ns (before diag.):
       0.988 -0.004  0.003 -0.002 -0.010
      -0.004  0.982 -0.005 -0.009  0.001
       0.003 -0.005  0.987 -0.006  0.005
      -0.002 -0.009 -0.006  0.990  0.001
      -0.010  0.001  0.005  0.001  0.982
     SPIN  2
     eigenvalues:
       0.684  0.881  0.987  0.995  0.996
     eigenvectors (columns):
       0.464  0.227  0.091  0.731  0.436
       0.597 -0.413  0.566 -0.379  0.097
      -0.000 -0.672 -0.571  0.000  0.471
       0.268 -0.394 -0.158  0.422 -0.755
       0.597  0.413 -0.566 -0.379 -0.097
     occupation matrix ns (before diag.):
       0.922 -0.076  0.018 -0.029 -0.096
      -0.076  0.862 -0.029 -0.068 -0.089
       0.018 -0.029  0.941 -0.031  0.029
      -0.029 -0.068 -0.031  0.955 -0.032
      -0.096 -0.089  0.029 -0.032  0.862
     ------------------------ ATOM    4 ------------------------
     Tr[ns(  4)] (up, down, total) =   4.92931  4.54110  9.47041
     Atomic magnetic moment for atom   4 =   0.38821
     SPIN  1
     eigenvalues:
       0.971  0.973  0.992  0.996  0.997
     eigenvectors (columns):
      -0.216 -0.567  0.103  0.439  0.654
       0.521  0.000 -0.737  0.431 -0.000
       0.520 -0.534  0.455  0.149 -0.463
      -0.375  0.328  0.179  0.760 -0.378
      -0.520 -0.534 -0.455 -0.149 -0.463
     occupation matrix ns (before diag.):
       0.988  0.003 -0.004  0.002 -0.010
       0.003  0.987 -0.005  0.006  0.005
      -0.004 -0.005  0.982  0.009  0.001
       0.002  0.006  0.009  0.990 -0.001
      -0.010  0.005  0.001 -0.001  0.982
     SPIN  2
     eigenvalues:
       0.684  0.881  0.987  0.995  0.996
     eigenvectors (columns):
       0.464  0.227 -0.091 -0.731  0.436
       0.000 -0.672  0.571 -0.000  0.471
       0.597 -0.413 -0.566  0.379  0.097
      -0.268  0.394 -0.158  0.422  0.755
       0.597  0.413  0.566  0.379 -0.097
     occupation matrix ns (before diag.):
       0.922  0.018 -0.076  0.029 -0.096
       0.018  0.941 -0.029  0.031  0.029
      -0.076 -0.029  0.862  0.068 -0.089
       0.029  0.031  0.068  0.955  0.032
      -0.096  0.029 -0.089  0.032  0.862

     Number of occupied Hubbard levels =   37.4114

     negative rho (up, down):  2.283E-07 1.158E-07

     HUBBARD ENERGY =    0.1698  (Ry)

     total cpu time spent up to now is     1828.2 secs

     total energy              =   -1118.15922206 Ry
     estimated scf accuracy    <       0.00885233 Ry

     total magnetization       =     2.15 Bohr mag/cell
     absolute magnetization    =     2.49 Bohr mag/cell

     iteration # 11     ecut=   180.00 Ry     beta= 0.10
     Davidson diagonalization with overlap

---- Real-time Memory Report at c_bands before calling an iterative solver
          1040 MiB given to the printing process from OS
             0 MiB allocation reported by mallinfo(arena+hblkhd)
        378883 MiB available memory on the node where the printing process lives
------------------
     ethr =  1.23E-05,  avg # of iterations =  5.0

     =================== HUBBARD OCCUPATIONS ===================
     ------------------------ ATOM    1 ------------------------
     Tr[ns(  1)] (up, down, total) =   4.96411  4.09840  9.06251
     Atomic magnetic moment for atom   1 =   0.86571
     SPIN  1
     eigenvalues:
       0.990  0.990  0.993  0.996  0.996
     eigenvectors (columns):
       0.532  0.199 -0.000 -0.364 -0.738
      -0.111 -0.663  0.577 -0.463 -0.030
      -0.518  0.427  0.577  0.258 -0.386
      -0.199  0.532 -0.000 -0.738  0.364
      -0.629 -0.235 -0.577 -0.205 -0.416
     occupation matrix ns (before diag.):
       0.994  0.001  0.001  0.000  0.002
       0.001  0.992  0.000  0.002 -0.000
       0.001  0.000  0.992 -0.002 -0.000
       0.000  0.002 -0.002  0.994 -0.000
       0.002 -0.000 -0.000 -0.000  0.992
     SPIN  2
     eigenvalues:
       0.585  0.585  0.975  0.975  0.979
     eigenvectors (columns):
       0.422 -0.077 -0.229 -0.873  0.000
      -0.248  0.694 -0.338 -0.093 -0.577
      -0.478 -0.562  0.249 -0.247 -0.577
      -0.077 -0.422 -0.873  0.229 -0.000
      -0.725  0.133 -0.089 -0.339  0.577
     occupation matrix ns (before diag.):
       0.903  0.062  0.062  0.000  0.123
       0.062  0.764  0.107  0.107 -0.107
       0.062  0.107  0.764 -0.107 -0.107
       0.000  0.107 -0.107  0.903 -0.000
       0.123 -0.107 -0.107 -0.000  0.764
     ------------------------ ATOM    2 ------------------------
     Tr[ns(  2)] (up, down, total) =   4.92864  4.53074  9.45938
     Atomic magnetic moment for atom   2 =   0.39789
     SPIN  1
     eigenvalues:
       0.970  0.973  0.992  0.996  0.997
     eigenvectors (columns):
      -0.434  0.000  0.208 -0.877  0.000
      -0.520  0.534 -0.456  0.149  0.463
      -0.520 -0.534 -0.456  0.149 -0.463
       0.000  0.655 -0.000 -0.000 -0.756
       0.521 -0.000 -0.736 -0.432  0.000
     occupation matrix ns (before diag.):
       0.991 -0.005 -0.005  0.000  0.007
      -0.005  0.982 -0.001 -0.008  0.006
      -0.005 -0.001  0.982  0.008  0.006
       0.000 -0.008  0.008  0.986 -0.000
       0.007  0.006  0.006 -0.000  0.987
     SPIN  2
     eigenvalues:
       0.676  0.878  0.986  0.995  0.996
     eigenvectors (columns):
      -0.000 -0.458 -0.183 -0.000  0.870
       0.597 -0.411  0.568  0.379 -0.097
      -0.597 -0.411  0.568 -0.379 -0.097
       0.536  0.000  0.000 -0.845 -0.000
       0.000  0.673  0.568 -0.000  0.474
     occupation matrix ns (before diag.):
       0.971 -0.021 -0.021  0.000  0.037
      -0.021  0.859  0.091 -0.102  0.030
      -0.021  0.091  0.859  0.102  0.030
       0.000 -0.102  0.102  0.903 -0.000
       0.037  0.030  0.030 -0.000  0.939
     ------------------------ ATOM    3 ------------------------
     Tr[ns(  3)] (up, down, total) =   4.92864  4.53074  9.45938
     Atomic magnetic moment for atom   3 =   0.39789
     SPIN  1
     eigenvalues:
       0.970  0.973  0.992  0.996  0.997
[...]
     Atomic magnetic moment for atom   2 =   0.33420
     SPIN  1
     eigenvalues:
       0.967  0.970  0.991  0.996  0.996
     eigenvectors (columns):
      -0.436  0.000  0.214 -0.874  0.000
      -0.530  0.534 -0.441  0.157  0.463
      -0.530 -0.534 -0.441  0.157 -0.463
       0.000  0.655 -0.000 -0.000 -0.756
       0.498 -0.000 -0.751 -0.432  0.000
     occupation matrix ns (before diag.):
       0.990 -0.006 -0.006  0.000  0.007
      -0.006  0.980 -0.002 -0.009  0.006
      -0.006 -0.002  0.980  0.009  0.006
       0.000 -0.009  0.009  0.985 -0.000
       0.007  0.006  0.006 -0.000  0.986
     SPIN  2
     eigenvalues:
       0.725  0.884  0.987  0.995  0.996
     eigenvectors (columns):
      -0.000 -0.424  0.163 -0.000 -0.891
       0.600 -0.423 -0.558  0.374  0.100
      -0.600 -0.423 -0.558 -0.374  0.100
       0.529  0.000 -0.000 -0.849  0.000
       0.000  0.680 -0.593 -0.000 -0.432
     occupation matrix ns (before diag.):
       0.975 -0.019 -0.019  0.000  0.033
      -0.019  0.875  0.075 -0.086  0.029
      -0.019  0.075  0.875  0.086  0.029
       0.000 -0.086  0.086  0.920 -0.000
       0.033  0.029  0.029 -0.000  0.941
     ------------------------ ATOM    3 ------------------------
     Tr[ns(  3)] (up, down, total) =   4.92118  4.58698  9.50816
     Atomic magnetic moment for atom   3 =   0.33420
     SPIN  1
     eigenvalues:
       0.967  0.970  0.991  0.996  0.996
     eigenvectors (columns):
      -0.218 -0.567  0.107  0.437  0.654
       0.530 -0.534  0.441  0.157 -0.463
       0.498 -0.000 -0.751  0.432 -0.000
       0.378 -0.328 -0.185 -0.757  0.378
      -0.530 -0.534 -0.441 -0.157 -0.463
     occupation matrix ns (before diag.):
       0.987 -0.005  0.004 -0.002 -0.011
      -0.005  0.980 -0.006 -0.010  0.002
       0.004 -0.006  0.986 -0.006  0.006
      -0.002 -0.010 -0.006  0.989  0.001
      -0.011  0.002  0.006  0.001  0.980
     SPIN  2
     eigenvalues:
       0.725  0.884  0.987  0.995  0.996
     eigenvectors (columns):
       0.458  0.212  0.081  0.735  0.445
       0.600 -0.423  0.558 -0.374  0.100
      -0.000 -0.680 -0.593  0.000  0.432
       0.264 -0.368 -0.141  0.424 -0.771
       0.600  0.423 -0.558 -0.374 -0.100
     occupation matrix ns (before diag.):
       0.934 -0.065  0.017 -0.024 -0.084
      -0.065  0.875 -0.029 -0.060 -0.075
       0.017 -0.029  0.941 -0.029  0.029
      -0.024 -0.060 -0.029  0.961 -0.026
      -0.084 -0.075  0.029 -0.026  0.875
     ------------------------ ATOM    4 ------------------------
     Tr[ns(  4)] (up, down, total) =   4.92118  4.58698  9.50816
     Atomic magnetic moment for atom   4 =   0.33420
     SPIN  1
     eigenvalues:
       0.967  0.970  0.991  0.996  0.996
     eigenvectors (columns):
      -0.218 -0.567  0.107  0.437  0.654
       0.498  0.000 -0.751  0.432 -0.000
       0.530 -0.534  0.441  0.157 -0.463
      -0.378  0.328  0.185  0.757 -0.378
      -0.530 -0.534 -0.441 -0.157 -0.463
     occupation matrix ns (before diag.):
       0.987  0.004 -0.005  0.002 -0.011
       0.004  0.986 -0.006  0.006  0.006
      -0.005 -0.006  0.980  0.010  0.002
       0.002  0.006  0.010  0.989 -0.001
      -0.011  0.006  0.002 -0.001  0.980
     SPIN  2
     eigenvalues:
       0.725  0.884  0.987  0.995  0.996
     eigenvectors (columns):
       0.458  0.212 -0.081 -0.735  0.445
       0.000 -0.680  0.593 -0.000  0.432
       0.600 -0.423 -0.558  0.374  0.100
      -0.264  0.368 -0.141  0.424  0.771
       0.600  0.423  0.558  0.374 -0.100
     occupation matrix ns (before diag.):
       0.934  0.017 -0.065  0.024 -0.084
       0.017  0.941 -0.029  0.029  0.029
      -0.065 -0.029  0.875  0.060 -0.075
       0.024  0.029  0.060  0.961  0.026
      -0.084  0.029 -0.075  0.026  0.875

     Number of occupied Hubbard levels =   37.4001

     negative rho (up, down):  1.361E-08 1.053E-07

     HUBBARD ENERGY =    0.1530  (Ry)

     total cpu time spent up to now is     3774.4 secs

     total energy              =   -1118.16322499 Ry
     estimated scf accuracy    <       0.00000106 Ry

     total magnetization       =     2.15 Bohr mag/cell
     absolute magnetization    =     2.40 Bohr mag/cell

     iteration # 31     ecut=   180.00 Ry     beta= 0.10
     Davidson diagonalization with overlap

---- Real-time Memory Report at c_bands before calling an iterative solver
          1040 MiB given to the printing process from OS
             0 MiB allocation reported by mallinfo(arena+hblkhd)
        377585 MiB available memory on the node where the printing process lives
------------------
     ethr =  1.47E-09,  avg # of iterations =  1.5

     =================== HUBBARD OCCUPATIONS ===================
     ------------------------ ATOM    1 ------------------------
     Tr[ns(  1)] (up, down, total) =   4.97012  3.90555  8.87568
     Atomic magnetic moment for atom   1 =   1.06457
     SPIN  1
     eigenvalues:
       0.993  0.993  0.993  0.996  0.996
     eigenvectors (columns):
      -0.614  0.379 -0.000 -0.331 -0.608
      -0.017 -0.565  0.577 -0.589 -0.015
       0.498  0.268  0.577  0.307 -0.503
       0.379  0.614  0.000 -0.608  0.331
       0.481 -0.297 -0.577 -0.282 -0.518
     occupation matrix ns (before diag.):
       0.994  0.001  0.001  0.000  0.001
       0.001  0.994 -0.000  0.001  0.000
       0.001 -0.000  0.994 -0.001  0.000
       0.000  0.001 -0.001  0.994 -0.000
       0.001  0.000  0.000 -0.000  0.994
     SPIN  2
     eigenvalues:
       0.469  0.469  0.987  0.991  0.991
     eigenvectors (columns):
      -0.363 -0.071  0.000 -0.174 -0.913
       0.247  0.717  0.577 -0.285 -0.099
       0.498 -0.573  0.577  0.228 -0.197
       0.071 -0.363 -0.000 -0.913  0.174
       0.745  0.145 -0.577 -0.056 -0.296
     occupation matrix ns (before diag.):
       0.919  0.073  0.073  0.000  0.146
       0.073  0.689  0.149  0.127 -0.149
       0.073  0.149  0.689 -0.127 -0.149
       0.000  0.127 -0.127  0.919 -0.000
       0.146 -0.149 -0.149 -0.000  0.689
     ------------------------ ATOM    2 ------------------------
     Tr[ns(  2)] (up, down, total) =   4.92115  4.58699  9.50814
     Atomic magnetic moment for atom   2 =   0.33416
     SPIN  1
     eigenvalues:
       0.967  0.970  0.991  0.996  0.996
     eigenvectors (columns):
      -0.436  0.000  0.214 -0.874  0.000
      -0.530  0.534 -0.441  0.157  0.463
      -0.530 -0.534 -0.441  0.157 -0.463
       0.000  0.655 -0.000 -0.000 -0.756
       0.498 -0.000 -0.752 -0.432  0.000
     occupation matrix ns (before diag.):
       0.990 -0.006 -0.006  0.000  0.007
      -0.006  0.980 -0.002 -0.009  0.006
      -0.006 -0.002  0.980  0.009  0.006
       0.000 -0.009  0.009  0.985 -0.000
       0.007  0.006  0.006 -0.000  0.986
     SPIN  2
     eigenvalues:
       0.725  0.884  0.987  0.995  0.996
     eigenvectors (columns):
      -0.000 -0.424  0.163 -0.000 -0.891
       0.600 -0.423 -0.558  0.374  0.100
      -0.600 -0.423 -0.558 -0.374  0.100
       0.529  0.000 -0.000 -0.849  0.000
       0.000  0.680 -0.593 -0.000 -0.432
     occupation matrix ns (before diag.):
       0.975 -0.019 -0.019  0.000  0.033
      -0.019  0.875  0.075 -0.086  0.029
      -0.019  0.075  0.875  0.086  0.029
       0.000 -0.086  0.086  0.920 -0.000
       0.033  0.029  0.029 -0.000  0.941
     ------------------------ ATOM    3 ------------------------
     Tr[ns(  3)] (up, down, total) =   4.92115  4.58699  9.50814
     Atomic magnetic moment for atom   3 =   0.33416
     SPIN  1
     eigenvalues:
       0.967  0.970  0.991  0.996  0.996
     eigenvectors (columns):
      -0.218 -0.567  0.107  0.437  0.654
       0.530 -0.534  0.441  0.157 -0.463
       0.498 -0.000 -0.752  0.432 -0.000
       0.378 -0.328 -0.185 -0.757  0.378
      -0.530 -0.534 -0.441 -0.157 -0.463
     occupation matrix ns (before diag.):
       0.987 -0.005  0.004 -0.002 -0.011
      -0.005  0.980 -0.006 -0.010  0.002
       0.004 -0.006  0.986 -0.006  0.006
      -0.002 -0.010 -0.006  0.989  0.001
      -0.011  0.002  0.006  0.001  0.980
     SPIN  2
     eigenvalues:
       0.725  0.884  0.987  0.995  0.996
     eigenvectors (columns):
       0.458  0.212  0.081  0.735  0.445
       0.600 -0.423  0.558 -0.374  0.100
      -0.000 -0.680 -0.593  0.000  0.432
       0.264 -0.367 -0.141  0.424 -0.772
       0.600  0.423 -0.558 -0.374 -0.100
     occupation matrix ns (before diag.):
       0.934 -0.065  0.016 -0.024 -0.084
      -0.065  0.875 -0.029 -0.060 -0.075
       0.016 -0.029  0.941 -0.029  0.029
      -0.024 -0.060 -0.029  0.961 -0.026
      -0.084 -0.075  0.029 -0.026  0.875
     ------------------------ ATOM    4 ------------------------
     Tr[ns(  4)] (up, down, total) =   4.92115  4.58699  9.50814
     Atomic magnetic moment for atom   4 =   0.33416
     SPIN  1
     eigenvalues:
       0.967  0.970  0.991  0.996  0.996
     eigenvectors (columns):
      -0.218 -0.567  0.107  0.437  0.654
       0.498  0.000 -0.752  0.432 -0.000
       0.530 -0.534  0.441  0.157 -0.463
      -0.378  0.328  0.185  0.757 -0.378
      -0.530 -0.534 -0.441 -0.157 -0.463
     occupation matrix ns (before diag.):
       0.987  0.004 -0.005  0.002 -0.011
       0.004  0.986 -0.006  0.006  0.006
      -0.005 -0.006  0.980  0.010  0.002
       0.002  0.006  0.010  0.989 -0.001
      -0.011  0.006  0.002 -0.001  0.980
     SPIN  2
     eigenvalues:
       0.725  0.884  0.987  0.995  0.996
     eigenvectors (columns):
       0.458  0.212 -0.081 -0.735  0.445
       0.000 -0.680  0.593 -0.000  0.432
       0.600 -0.423 -0.558  0.374  0.100
      -0.264  0.367 -0.141  0.424  0.772
       0.600  0.423  0.558  0.374 -0.100
     occupation matrix ns (before diag.):
       0.934  0.016 -0.065  0.024 -0.084
       0.016  0.941 -0.029  0.029  0.029
      -0.065 -0.029  0.875  0.060 -0.075
       0.024  0.029  0.060  0.961  0.026
      -0.084  0.029 -0.075  0.026  0.875

     Number of occupied Hubbard levels =   37.4001

     HUBBARD ENERGY =    0.1530  (Ry)

     Magnetic moment per site  (integrated on atomic sphere of radius R)
     atom   1 (R=0.035)  charge= 16.7042  magn=  1.0802
     atom   2 (R=0.035)  charge= 15.7814  magn=  0.3259
     atom   3 (R=0.035)  charge= 15.7814  magn=  0.3259
     atom   4 (R=0.035)  charge= 15.7814  magn=  0.3259

     total cpu time spent up to now is     3868.7 secs

     End of self-consistent calculation

 ------ SPIN UP ------------


          k = 0.0000 0.0000 0.0000 (****** PWs)   bands (ev):

  -107.4665-100.5886-100.5765-100.5764 -68.0218 -67.8541 -67.8540 -55.1732
   -54.9969 -54.9969 -54.8088 -54.8088 -54.7500 -54.6206 -54.5927 -54.5927
    -9.4649  -8.3350  -8.1784  -8.1784  -7.4952  -7.4951  -7.2375  -6.9832
    -6.9832  -6.8139  -6.0507  -5.9563  -5.9562  -5.9260  -5.9260  -5.8609
    -5.8609  -5.7237  -5.6947  -5.6947  -5.3233  -3.7224  -3.7224  -3.6600
    -1.1048  -0.5708  -0.5708  -0.5556  -0.1247  -0.1247   0.0452   0.1355
     0.1609   0.1610   0.1975   0.1975   0.2206   0.2749   0.2855   0.2855
     0.3363   0.3363   0.3428   0.3431   0.3456   0.3456   0.3469   0.3469
     0.3983   0.4577   0.4613   0.4615   0.4866   0.4881   0.4882   0.4930
     0.5361   0.6047   0.6079   0.6084   0.6449   0.6462   0.6650   0.7303

     occupation numbers 
     1.0000   1.0000   1.0000   1.0000   1.0000   1.0000   1.0000   1.0000
     1.0000   1.0000   1.0000   1.0000   1.0000   1.0000   1.0000   1.0000
     1.0000   1.0000   1.0000   1.0000   1.0000   1.0000   1.0000   1.0000
     1.0000   1.0000   1.0000   0.9999   0.9999   0.9999   0.9999   0.9999
     0.9999   0.9997   0.9996   0.9996   0.9970   0.0294   0.0294   0.0206
     0.0000   0.0000   0.0000   0.0000   0.0000   0.0000   0.0000   0.0000
     0.0000   0.0000   0.0000   0.0000   0.0000   0.0000   0.0000   0.0000
     0.0000   0.0000   0.0000   0.0000   0.0000   0.0000   0.0000   0.0000
     0.0000   0.0000   0.0000   0.0000   0.0000   0.0000   0.0000   0.0000
     0.0000   0.0000   0.0000   0.0000   0.0000   0.0000   0.0000   0.0000

 ------ SPIN DOWN ----------


          k = 0.0000 0.0000 0.0000 (****** PWs)   bands (ev):

  -106.3725-100.4035-100.3892-100.3892 -66.7919 -66.6876 -66.6876 -54.9023
   -54.7258 -54.7258 -54.5509 -54.5509 -54.4899 -54.4694 -54.4378 -54.4378
    -9.3661  -8.0421  -7.2671  -7.2671  -6.9699  -6.7997  -6.7997  -6.7258
    -6.0429  -6.0429  -5.8068  -5.8068  -5.6472  -5.6472  -5.5823  -5.4548
    -5.3513  -5.3513  -4.2028  -4.2028  -4.1422  -3.4405  -3.4405  -3.4360
    -1.0320  -0.4922  -0.4921  -0.4914  -0.0791  -0.0791   0.0475   0.1442
     0.1665   0.1665   0.1984   0.1984   0.2236   0.2809   0.2917   0.2917
     0.3371   0.3371   0.3432   0.3436   0.3461   0.3462   0.3478   0.3480
     0.4036   0.4611   0.4645   0.4649   0.4874   0.4896   0.4898   0.4932
     0.5413   0.6094   0.6121   0.6129   0.6465   0.6482   0.6669   0.7348

     occupation numbers 
     1.0000   1.0000   1.0000   1.0000   1.0000   1.0000   1.0000   1.0000
     1.0000   1.0000   1.0000   1.0000   1.0000   1.0000   1.0000   1.0000
     1.0000   1.0000   1.0000   1.0000   1.0000   1.0000   1.0000   1.0000
     1.0000   1.0000   0.9998   0.9998   0.9995   0.9995   0.9993   0.9986
     0.9974   0.9974   0.3297   0.3297   0.2571   0.0059   0.0059   0.0057
     0.0000   0.0000   0.0000   0.0000   0.0000   0.0000   0.0000   0.0000
     0.0000   0.0000   0.0000   0.0000   0.0000   0.0000   0.0000   0.0000
     0.0000   0.0000   0.0000   0.0000   0.0000   0.0000   0.0000   0.0000
     0.0000   0.0000   0.0000   0.0000   0.0000   0.0000   0.0000   0.0000
     0.0000   0.0000   0.0000   0.0000   0.0000   0.0000   0.0000   0.0000

     the Fermi energy is    -4.3251 ev

!    total energy              =   -1118.16322562 Ry
     estimated scf accuracy    <       0.00000081 Ry
     smearing contrib. (-TS)   =      -0.03055984 Ry
     internal energy E=F+TS    =   -1118.13266578 Ry

     The total energy is F=E-TS. E is the sum of the following terms:
     one-electron contribution =   -2873.29753066 Ry
     hartree contribution      =    1420.61516615 Ry
     xc contribution           =    -185.11064744 Ry
     ewald contribution        =     519.50734990 Ry
     Hubbard energy            =       0.15299626 Ry

     total magnetization       =     2.15 Bohr mag/cell
     absolute magnetization    =     2.40 Bohr mag/cell

     convergence has been achieved in  31 iterations

     Forces acting on atoms (cartesian axes, Ry/au):

     atom    1 type  1   force =     0.05333247    0.05333247    0.05333247
     atom    2 type  2   force =    -0.04882283   -0.04882283    0.04431319
     atom    3 type  2   force =     0.04431319   -0.04882283   -0.04882283
     atom    4 type  2   force =    -0.04882283    0.04431319   -0.04882283
     The non-local contrib.  to forces
     atom    1 type  1   force =    -0.54130549   -0.54130549   -0.54130549
     atom    2 type  2   force =     0.16102457    0.16102457   -0.25186740
     atom    3 type  2   force =    -0.25186740    0.16102457    0.16102457
     atom    4 type  2   force =     0.16102457   -0.25186740    0.16102457
     The ionic contribution  to forces
     atom    1 type  1   force =   -35.26535072  -35.26535072  -35.26535072
     atom    2 type  2   force =    35.26535072   35.26535072  -35.26535072
     atom    3 type  2   force =   -35.26535072   35.26535072   35.26535072
     atom    4 type  2   force =    35.26535072  -35.26535072   35.26535072
     The local contribution  to forces
     atom    1 type  1   force =    35.84589721   35.84590125   35.84591712
     atom    2 type  2   force =   -35.46096298  -35.46098985   35.54629087
     atom    3 type  2   force =    35.54628454  -35.46094877  -35.46094770
     atom    4 type  2   force =   -35.46095235   35.54627842  -35.46095689
     The core correction contribution to forces
     atom    1 type  1   force =     0.01632099    0.01632139    0.01632074
     atom    2 type  2   force =     0.00002010    0.00001986    0.00849662
     atom    3 type  2   force =     0.00849617    0.00002098    0.00002046
     atom    4 type  2   force =     0.00002111    0.00849617    0.00002021
     The Hubbard contrib.    to forces
     atom    1 type  1   force =    -0.00253919   -0.00253919   -0.00253919
     atom    2 type  2   force =    -0.01378274   -0.01378274    0.00788233
     atom    3 type  2   force =     0.00788233   -0.01378274   -0.01378274
     atom    4 type  2   force =    -0.01378274    0.00788233   -0.01378274
     The SCF correction term to forces
     atom    1 type  1   force =     0.00029241    0.00029052    0.00026561
     atom    2 type  2   force =    -0.00049704   -0.00046447   -0.00115349
     atom    3 type  2   force =    -0.00115400   -0.00050213   -0.00050717
     atom    4 type  2   force =    -0.00050000   -0.00114475   -0.00049848

     Total force =     0.169488     Total SCF correction =     0.002384

     Writing all to output data dir ./pwscf.save/

     init_run     :     83.85s CPU     86.44s WALL (       1 calls)
     electrons    :   3708.32s CPU   3785.58s WALL (       1 calls)
     forces       :     54.36s CPU     56.01s WALL (       1 calls)

     Called by init_run:
     wfcinit      :     33.71s CPU     34.40s WALL (       1 calls)
     wfcinit:wfcr :     31.22s CPU     31.80s WALL (       2 calls)
     potinit      :      4.74s CPU      5.61s WALL (       1 calls)
     hinit0       :      2.68s CPU      3.17s WALL (       1 calls)

     Called by electrons:
     c_bands      :   3247.37s CPU   3291.43s WALL (      31 calls)
     sum_band     :    322.92s CPU    331.08s WALL (      31 calls)
     v_of_rho     :     96.50s CPU    118.46s WALL (      32 calls)
     v_h          :      7.43s CPU      7.81s WALL (      32 calls)
     v_xc         :     91.76s CPU    114.14s WALL (      33 calls)
     mix_rho      :     38.49s CPU     39.64s WALL (      31 calls)

     Called by c_bands:
     init_us_2    :      8.64s CPU      8.71s WALL (     132 calls)
     init_us_2:cp :      8.64s CPU      8.71s WALL (     132 calls)
     regterg      :   3231.96s CPU   3275.85s WALL (      62 calls)

     Called by sum_band:
     sum_band:wei :      0.00s CPU      0.00s WALL (      31 calls)
     sum_band:loo :    275.01s CPU    281.65s WALL (      31 calls)
     sum_band:buf :      3.17s CPU      3.17s WALL (      62 calls)
     sum_band:ini :      4.21s CPU      4.22s WALL (      62 calls)

     Called by *egterg:
     rdiaghg      :      1.97s CPU      1.98s WALL (     264 calls)
     regterg:over :    455.19s CPU    456.40s WALL (     202 calls)
     regterg:upda :    277.41s CPU    277.45s WALL (     202 calls)
     regterg:last :    482.89s CPU    482.95s WALL (     126 calls)
     h_psi        :   1867.47s CPU   1905.37s WALL (     266 calls)
     g_psi        :      0.68s CPU      0.68s WALL (     202 calls)

     Called by h_psi:
     h_psi:calbec :    289.21s CPU    290.07s WALL (     266 calls)
     vloc_psi     :   1181.27s CPU   1218.15s WALL (     266 calls)
     add_vuspsi   :    315.20s CPU    315.24s WALL (     266 calls)
     vhpsi        :     73.38s CPU     73.47s WALL (     266 calls)

     General routines
     calbec       :    396.47s CPU    398.06s WALL (     704 calls)
     fft          :     70.47s CPU     84.03s WALL (     490 calls)
     ffts         :      8.73s CPU      9.35s WALL (      62 calls)
     fftw         :   1076.90s CPU   1120.18s WALL (   15358 calls)
     davcio       :      0.00s CPU      0.02s WALL (       2 calls)

     Parallel routines

     Hubbard U routines
     new_ns       :     23.88s CPU     24.10s WALL (      31 calls)
     vhpsi        :     73.38s CPU     73.47s WALL (     266 calls)
     force_hub    :     34.05s CPU     34.54s WALL (       1 calls)

     PWSCF        :      1h 4m CPU      1h 5m WALL


   This run was terminated on:  22: 9:22  18Oct2024            

=------------------------------------------------------------------------------=
   JOB DONE.
=------------------------------------------------------------------------------=
